  46  46   0   0
  0.3316491E+02  0.8986353E-09  0.8986370E-09  0.2181413E-08  0.5000000E-16
  1.000000000000000E-004
  CAR 
 unknown system                          
      4.61367167    -36.08247038  301     -1.69272467      1.00000000
    -36.082  0.0000E+00  0.0000E+00  0.0000E+00  0.0000E+00
    -35.947  0.0000E+00  0.0000E+00  0.0000E+00  0.0000E+00
    -35.811  0.0000E+00  0.0000E+00  0.0000E+00  0.0000E+00
    -35.676  0.0000E+00  0.0000E+00  0.0000E+00  0.0000E+00
    -35.540  0.0000E+00  0.0000E+00  0.0000E+00  0.0000E+00
    -35.404  0.0000E+00  0.0000E+00  0.0000E+00  0.0000E+00
    -35.269  0.0000E+00  0.0000E+00  0.0000E+00  0.0000E+00
    -35.133  0.0000E+00  0.0000E+00  0.0000E+00  0.0000E+00
    -34.997  0.0000E+00  0.0000E+00  0.0000E+00  0.0000E+00
    -34.862  0.0000E+00  0.0000E+00  0.0000E+00  0.0000E+00
    -34.726  0.0000E+00  0.0000E+00  0.0000E+00  0.0000E+00
    -34.590  0.0000E+00  0.0000E+00  0.0000E+00  0.0000E+00
    -34.455  0.0000E+00  0.0000E+00  0.0000E+00  0.0000E+00
    -34.319  0.1545E-14  0.4275E-11  0.2096E-15  0.5800E-12
    -34.183  0.1581E-01  0.2561E-01  0.2145E-02  0.3473E-02
    -34.048  0.1143E+00  0.1250E+00  0.1766E-01  0.2043E-01
    -33.912  0.1515E+00  0.1477E+00  0.3824E-01  0.4049E-01
    -33.776  0.9967E-01  0.9158E-01  0.5179E-01  0.5294E-01
    -33.641  0.1339E+00  0.1657E+00  0.6999E-01  0.7543E-01
    -33.505  0.2002E+00  0.2371E+00  0.9717E-01  0.1076E+00
    -33.369  0.2944E+00  0.2415E+00  0.1371E+00  0.1404E+00
    -33.234  0.1857E+00  0.1799E+00  0.1623E+00  0.1649E+00
    -33.098  0.1216E+00  0.1087E+00  0.1789E+00  0.1797E+00
    -32.962  0.8132E-02  0.2077E-02  0.1800E+00  0.1800E+00
    -32.827  0.0000E+00  0.0000E+00  0.1800E+00  0.1800E+00
    -32.691  0.0000E+00  0.0000E+00  0.1800E+00  0.1800E+00
    -32.555  0.0000E+00  0.0000E+00  0.1800E+00  0.1800E+00
    -32.420  0.0000E+00  0.0000E+00  0.1800E+00  0.1800E+00
    -32.284  0.0000E+00  0.0000E+00  0.1800E+00  0.1800E+00
    -32.149  0.0000E+00  0.0000E+00  0.1800E+00  0.1800E+00
    -32.013  0.0000E+00  0.0000E+00  0.1800E+00  0.1800E+00
    -31.877  0.0000E+00  0.0000E+00  0.1800E+00  0.1800E+00
    -31.742  0.0000E+00  0.0000E+00  0.1800E+00  0.1800E+00
    -31.606  0.0000E+00  0.0000E+00  0.1800E+00  0.1800E+00
    -31.470  0.0000E+00  0.0000E+00  0.1800E+00  0.1800E+00
    -31.335  0.0000E+00  0.0000E+00  0.1800E+00  0.1800E+00
    -31.199  0.0000E+00  0.0000E+00  0.1800E+00  0.1800E+00
    -31.063  0.0000E+00  0.0000E+00  0.1800E+00  0.1800E+00
    -30.928  0.0000E+00  0.0000E+00  0.1800E+00  0.1800E+00
    -30.792  0.0000E+00  0.0000E+00  0.1800E+00  0.1800E+00
    -30.656  0.0000E+00  0.0000E+00  0.1800E+00  0.1800E+00
    -30.521  0.0000E+00  0.0000E+00  0.1800E+00  0.1800E+00
    -30.385  0.0000E+00  0.0000E+00  0.1800E+00  0.1800E+00
    -30.249  0.0000E+00  0.0000E+00  0.1800E+00  0.1800E+00
    -30.114  0.0000E+00  0.0000E+00  0.1800E+00  0.1800E+00
    -29.978  0.0000E+00  0.0000E+00  0.1800E+00  0.1800E+00
    -29.842  0.0000E+00  0.0000E+00  0.1800E+00  0.1800E+00
    -29.707  0.0000E+00  0.0000E+00  0.1800E+00  0.1800E+00
    -29.571  0.0000E+00  0.0000E+00  0.1800E+00  0.1800E+00
    -29.435  0.0000E+00  0.0000E+00  0.1800E+00  0.1800E+00
    -29.300  0.0000E+00  0.0000E+00  0.1800E+00  0.1800E+00
    -29.164  0.0000E+00  0.0000E+00  0.1800E+00  0.1800E+00
    -29.028  0.0000E+00  0.0000E+00  0.1800E+00  0.1800E+00
    -28.893  0.0000E+00  0.0000E+00  0.1800E+00  0.1800E+00
    -28.757  0.0000E+00  0.0000E+00  0.1800E+00  0.1800E+00
    -28.622  0.0000E+00  0.0000E+00  0.1800E+00  0.1800E+00
    -28.486  0.0000E+00  0.0000E+00  0.1800E+00  0.1800E+00
    -28.350  0.0000E+00  0.0000E+00  0.1800E+00  0.1800E+00
    -28.215  0.0000E+00  0.0000E+00  0.1800E+00  0.1800E+00
    -28.079  0.0000E+00  0.0000E+00  0.1800E+00  0.1800E+00
    -27.943  0.0000E+00  0.0000E+00  0.1800E+00  0.1800E+00
    -27.808  0.0000E+00  0.0000E+00  0.1800E+00  0.1800E+00
    -27.672  0.0000E+00  0.0000E+00  0.1800E+00  0.1800E+00
    -27.536  0.0000E+00  0.0000E+00  0.1800E+00  0.1800E+00
    -27.401  0.0000E+00  0.0000E+00  0.1800E+00  0.1800E+00
    -27.265  0.0000E+00  0.0000E+00  0.1800E+00  0.1800E+00
    -27.129  0.0000E+00  0.0000E+00  0.1800E+00  0.1800E+00
    -26.994  0.0000E+00  0.0000E+00  0.1800E+00  0.1800E+00
    -26.858  0.0000E+00  0.0000E+00  0.1800E+00  0.1800E+00
    -26.722  0.0000E+00  0.0000E+00  0.1800E+00  0.1800E+00
    -26.587  0.0000E+00  0.0000E+00  0.1800E+00  0.1800E+00
    -26.451  0.0000E+00  0.0000E+00  0.1800E+00  0.1800E+00
    -26.315  0.0000E+00  0.0000E+00  0.1800E+00  0.1800E+00
    -26.180  0.0000E+00  0.0000E+00  0.1800E+00  0.1800E+00
    -26.044  0.0000E+00  0.0000E+00  0.1800E+00  0.1800E+00
    -25.908  0.0000E+00  0.0000E+00  0.1800E+00  0.1800E+00
    -25.773  0.0000E+00  0.0000E+00  0.1800E+00  0.1800E+00
    -25.637  0.0000E+00  0.0000E+00  0.1800E+00  0.1800E+00
    -25.501  0.0000E+00  0.0000E+00  0.1800E+00  0.1800E+00
    -25.366  0.0000E+00  0.0000E+00  0.1800E+00  0.1800E+00
    -25.230  0.0000E+00  0.0000E+00  0.1800E+00  0.1800E+00
    -25.095  0.0000E+00  0.0000E+00  0.1800E+00  0.1800E+00
    -24.959  0.0000E+00  0.0000E+00  0.1800E+00  0.1800E+00
    -24.823  0.0000E+00  0.0000E+00  0.1800E+00  0.1800E+00
    -24.688  0.0000E+00  0.0000E+00  0.1800E+00  0.1800E+00
    -24.552  0.0000E+00  0.0000E+00  0.1800E+00  0.1800E+00
    -24.416  0.0000E+00  0.0000E+00  0.1800E+00  0.1800E+00
    -24.281  0.0000E+00  0.0000E+00  0.1800E+00  0.1800E+00
    -24.145  0.0000E+00  0.0000E+00  0.1800E+00  0.1800E+00
    -24.009  0.0000E+00  0.0000E+00  0.1800E+00  0.1800E+00
    -23.874  0.0000E+00  0.0000E+00  0.1800E+00  0.1800E+00
    -23.738  0.0000E+00  0.0000E+00  0.1800E+00  0.1800E+00
    -23.602  0.0000E+00  0.0000E+00  0.1800E+00  0.1800E+00
    -23.467  0.0000E+00  0.0000E+00  0.1800E+00  0.1800E+00
    -23.331  0.0000E+00  0.0000E+00  0.1800E+00  0.1800E+00
    -23.195  0.0000E+00  0.0000E+00  0.1800E+00  0.1800E+00
    -23.060  0.0000E+00  0.0000E+00  0.1800E+00  0.1800E+00
    -22.924  0.0000E+00  0.0000E+00  0.1800E+00  0.1800E+00
    -22.788  0.0000E+00  0.0000E+00  0.1800E+00  0.1800E+00
    -22.653  0.0000E+00  0.0000E+00  0.1800E+00  0.1800E+00
    -22.517  0.0000E+00  0.0000E+00  0.1800E+00  0.1800E+00
    -22.381  0.0000E+00  0.0000E+00  0.1800E+00  0.1800E+00
    -22.246  0.0000E+00  0.0000E+00  0.1800E+00  0.1800E+00
    -22.110  0.0000E+00  0.0000E+00  0.1800E+00  0.1800E+00
    -21.974  0.0000E+00  0.0000E+00  0.1800E+00  0.1800E+00
    -21.839  0.0000E+00  0.0000E+00  0.1800E+00  0.1800E+00
    -21.703  0.0000E+00  0.0000E+00  0.1800E+00  0.1800E+00
    -21.568  0.0000E+00  0.3691E-13  0.1800E+00  0.1800E+00
    -21.432  0.2031E-04  0.2442E-01  0.1800E+00  0.1833E+00
    -21.296  0.2455E-01  0.0000E+00  0.1833E+00  0.1833E+00
    -21.161  0.0000E+00  0.0000E+00  0.1833E+00  0.1833E+00
    -21.025  0.0000E+00  0.0000E+00  0.1833E+00  0.1833E+00
    -20.889  0.0000E+00  0.0000E+00  0.1833E+00  0.1833E+00
    -20.754  0.0000E+00  0.0000E+00  0.1833E+00  0.1833E+00
    -20.618  0.8272E-09  0.2242E-07  0.1833E+00  0.1833E+00
    -20.482  0.6788E-02  0.6955E-02  0.1843E+00  0.1843E+00
    -20.347  0.1439E-01  0.1576E-01  0.1862E+00  0.1864E+00
    -20.211  0.4711E-01  0.5043E-01  0.1926E+00  0.1933E+00
    -20.075  0.1120E+00  0.1200E+00  0.2078E+00  0.2096E+00
    -19.940  0.2332E+00  0.2230E+00  0.2395E+00  0.2399E+00
    -19.804  0.3524E-02  0.8338E-03  0.2400E+00  0.2400E+00
    -19.668  0.0000E+00  0.0000E+00  0.2400E+00  0.2400E+00
    -19.533  0.0000E+00  0.0000E+00  0.2400E+00  0.2400E+00
    -19.397  0.0000E+00  0.0000E+00  0.2400E+00  0.2400E+00
    -19.261  0.0000E+00  0.0000E+00  0.2400E+00  0.2400E+00
    -19.126  0.0000E+00  0.0000E+00  0.2400E+00  0.2400E+00
    -18.990  0.0000E+00  0.0000E+00  0.2400E+00  0.2400E+00
    -18.854  0.0000E+00  0.0000E+00  0.2400E+00  0.2400E+00
    -18.719  0.0000E+00  0.0000E+00  0.2400E+00  0.2400E+00
    -18.583  0.0000E+00  0.0000E+00  0.2400E+00  0.2400E+00
    -18.447  0.0000E+00  0.0000E+00  0.2400E+00  0.2400E+00
    -18.312  0.0000E+00  0.0000E+00  0.2400E+00  0.2400E+00
    -18.176  0.0000E+00  0.0000E+00  0.2400E+00  0.2400E+00
    -18.041  0.0000E+00  0.0000E+00  0.2400E+00  0.2400E+00
    -17.905  0.0000E+00  0.0000E+00  0.2400E+00  0.2400E+00
    -17.769  0.0000E+00  0.0000E+00  0.2400E+00  0.2400E+00
    -17.634  0.0000E+00  0.0000E+00  0.2400E+00  0.2400E+00
    -17.498  0.0000E+00  0.0000E+00  0.2400E+00  0.2400E+00
    -17.362  0.0000E+00  0.0000E+00  0.2400E+00  0.2400E+00
    -17.227  0.5287E-08  0.1211E-07  0.2400E+00  0.2400E+00
    -17.091  0.6500E-01  0.6539E-01  0.2488E+00  0.2489E+00
    -16.955  0.6930E-01  0.6953E-01  0.2582E+00  0.2583E+00
    -16.820  0.7837E-01  0.7796E-01  0.2689E+00  0.2689E+00
    -16.684  0.8093E-02  0.7953E-02  0.2700E+00  0.2700E+00
    -16.548  0.0000E+00  0.0000E+00  0.2700E+00  0.2700E+00
    -16.413  0.0000E+00  0.0000E+00  0.2700E+00  0.2700E+00
    -16.277  0.0000E+00  0.0000E+00  0.2700E+00  0.2700E+00
    -16.141  0.0000E+00  0.0000E+00  0.2700E+00  0.2700E+00
    -16.006  0.0000E+00  0.0000E+00  0.2700E+00  0.2700E+00
    -15.870  0.0000E+00  0.0000E+00  0.2700E+00  0.2700E+00
    -15.734  0.0000E+00  0.0000E+00  0.2700E+00  0.2700E+00
    -15.599  0.0000E+00  0.0000E+00  0.2700E+00  0.2700E+00
    -15.463  0.0000E+00  0.0000E+00  0.2700E+00  0.2700E+00
    -15.327  0.0000E+00  0.0000E+00  0.2700E+00  0.2700E+00
    -15.192  0.0000E+00  0.0000E+00  0.2700E+00  0.2700E+00
    -15.056  0.0000E+00  0.0000E+00  0.2700E+00  0.2700E+00
    -14.920  0.0000E+00  0.0000E+00  0.2700E+00  0.2700E+00
    -14.785  0.0000E+00  0.0000E+00  0.2700E+00  0.2700E+00
    -14.649  0.0000E+00  0.0000E+00  0.2700E+00  0.2700E+00
    -14.514  0.0000E+00  0.0000E+00  0.2700E+00  0.2700E+00
    -14.378  0.0000E+00  0.0000E+00  0.2700E+00  0.2700E+00
    -14.242  0.0000E+00  0.0000E+00  0.2700E+00  0.2700E+00
    -14.107  0.0000E+00  0.0000E+00  0.2700E+00  0.2700E+00
    -13.971  0.0000E+00  0.0000E+00  0.2700E+00  0.2700E+00
    -13.835  0.0000E+00  0.0000E+00  0.2700E+00  0.2700E+00
    -13.700  0.0000E+00  0.0000E+00  0.2700E+00  0.2700E+00
    -13.564  0.0000E+00  0.0000E+00  0.2700E+00  0.2700E+00
    -13.428  0.0000E+00  0.0000E+00  0.2700E+00  0.2700E+00
    -13.293  0.0000E+00  0.0000E+00  0.2700E+00  0.2700E+00
    -13.157  0.0000E+00  0.0000E+00  0.2700E+00  0.2700E+00
    -13.021  0.0000E+00  0.0000E+00  0.2700E+00  0.2700E+00
    -12.886  0.0000E+00  0.0000E+00  0.2700E+00  0.2700E+00
    -12.750  0.0000E+00  0.0000E+00  0.2700E+00  0.2700E+00
    -12.614  0.0000E+00  0.0000E+00  0.2700E+00  0.2700E+00
    -12.479  0.0000E+00  0.0000E+00  0.2700E+00  0.2700E+00
    -12.343  0.0000E+00  0.0000E+00  0.2700E+00  0.2700E+00
    -12.207  0.0000E+00  0.0000E+00  0.2700E+00  0.2700E+00
    -12.072  0.0000E+00  0.0000E+00  0.2700E+00  0.2700E+00
    -11.936  0.0000E+00  0.0000E+00  0.2700E+00  0.2700E+00
    -11.800  0.0000E+00  0.0000E+00  0.2700E+00  0.2700E+00
    -11.665  0.0000E+00  0.0000E+00  0.2700E+00  0.2700E+00
    -11.529  0.0000E+00  0.0000E+00  0.2700E+00  0.2700E+00
    -11.393  0.0000E+00  0.0000E+00  0.2700E+00  0.2700E+00
    -11.258  0.0000E+00  0.0000E+00  0.2700E+00  0.2700E+00
    -11.122  0.0000E+00  0.0000E+00  0.2700E+00  0.2700E+00
    -10.987  0.0000E+00  0.0000E+00  0.2700E+00  0.2700E+00
    -10.851  0.0000E+00  0.0000E+00  0.2700E+00  0.2700E+00
    -10.715  0.0000E+00  0.0000E+00  0.2700E+00  0.2700E+00
    -10.580  0.0000E+00  0.0000E+00  0.2700E+00  0.2700E+00
    -10.444  0.0000E+00  0.0000E+00  0.2700E+00  0.2700E+00
    -10.308  0.0000E+00  0.0000E+00  0.2700E+00  0.2700E+00
    -10.173  0.0000E+00  0.0000E+00  0.2700E+00  0.2700E+00
    -10.037  0.0000E+00  0.0000E+00  0.2700E+00  0.2700E+00
     -9.901  0.0000E+00  0.0000E+00  0.2700E+00  0.2700E+00
     -9.766  0.0000E+00  0.0000E+00  0.2700E+00  0.2700E+00
     -9.630  0.0000E+00  0.0000E+00  0.2700E+00  0.2700E+00
     -9.494  0.0000E+00  0.0000E+00  0.2700E+00  0.2700E+00
     -9.359  0.0000E+00  0.2766E-08  0.2700E+00  0.2700E+00
     -9.223  0.4031E-03  0.6781E-02  0.2701E+00  0.2709E+00
     -9.087  0.1517E-01  0.1764E-01  0.2721E+00  0.2733E+00
     -8.952  0.9000E-02  0.2408E-04  0.2733E+00  0.2733E+00
     -8.816  0.2473E-01  0.2893E-01  0.2767E+00  0.2773E+00
     -8.680  0.2170E-01  0.2189E-01  0.2796E+00  0.2802E+00
     -8.545  0.7041E-01  0.7530E-01  0.2892E+00  0.2905E+00
     -8.409  0.6288E-01  0.5640E-01  0.2977E+00  0.2981E+00
     -8.273  0.5139E-01  0.5535E-01  0.3047E+00  0.3057E+00
     -8.138  0.7595E-01  0.7507E-01  0.3151E+00  0.3159E+00
     -8.002  0.4601E-01  0.4087E-01  0.3213E+00  0.3214E+00
     -7.866  0.3906E-01  0.4576E-01  0.3266E+00  0.3276E+00
     -7.731  0.4334E-01  0.4125E-01  0.3325E+00  0.3332E+00
     -7.595  0.2792E-01  0.4301E-01  0.3363E+00  0.3391E+00
     -7.460  0.5821E-01  0.4225E-01  0.3442E+00  0.3448E+00
     -7.324  0.1856E-01  0.2881E-01  0.3467E+00  0.3487E+00
     -7.188  0.5068E-01  0.3976E-01  0.3536E+00  0.3541E+00
     -7.053  0.4592E-01  0.5412E-01  0.3599E+00  0.3615E+00
     -6.917  0.7862E-01  0.7517E-01  0.3706E+00  0.3717E+00
     -6.781  0.5610E-01  0.5646E-01  0.3782E+00  0.3794E+00
     -6.646  0.8015E-01  0.7456E-01  0.3891E+00  0.3895E+00
     -6.510  0.9200E-01  0.1029E+00  0.4016E+00  0.4035E+00
     -6.374  0.7414E-01  0.7248E-01  0.4117E+00  0.4134E+00
     -6.239  0.7788E-01  0.8109E-01  0.4223E+00  0.4244E+00
     -6.103  0.6218E-01  0.5959E-01  0.4308E+00  0.4325E+00
     -5.967  0.7288E-01  0.7020E-01  0.4407E+00  0.4420E+00
     -5.832  0.1273E+00  0.1239E+00  0.4579E+00  0.4589E+00
     -5.696  0.9507E-01  0.9456E-01  0.4709E+00  0.4718E+00
     -5.560  0.9729E-01  0.9636E-01  0.4841E+00  0.4848E+00
     -5.425  0.9003E-01  0.9172E-01  0.4964E+00  0.4973E+00
     -5.289  0.3872E-01  0.3453E-01  0.5016E+00  0.5020E+00
     -5.153  0.3218E-01  0.2921E-01  0.5060E+00  0.5060E+00
     -5.018  0.1805E-01  0.2174E-01  0.5084E+00  0.5089E+00
     -4.882  0.2044E-01  0.3218E-01  0.5112E+00  0.5133E+00
     -4.746  0.1894E-01  0.5465E-02  0.5138E+00  0.5141E+00
     -4.611  0.7256E-02  0.7718E-02  0.5148E+00  0.5151E+00
     -4.475  0.4250E-01  0.4489E-01  0.5206E+00  0.5212E+00
     -4.339  0.7632E-01  0.8019E-01  0.5310E+00  0.5321E+00
     -4.204  0.5610E-01  0.5979E-01  0.5386E+00  0.5402E+00
     -4.068  0.1039E-01  0.4766E-01  0.5400E+00  0.5467E+00
     -3.933  0.0000E+00  0.0000E+00  0.5400E+00  0.5467E+00
     -3.797  0.0000E+00  0.0000E+00  0.5400E+00  0.5467E+00
     -3.661  0.0000E+00  0.0000E+00  0.5400E+00  0.5467E+00
     -3.526  0.0000E+00  0.4018E-13  0.5400E+00  0.5467E+00
     -3.390  0.0000E+00  0.4706E-01  0.5400E+00  0.5531E+00
     -3.254  0.1036E-06  0.2645E-01  0.5400E+00  0.5567E+00
     -3.119  0.1780E-01  0.1617E-02  0.5424E+00  0.5569E+00
     -2.983  0.5867E-01  0.6623E-01  0.5504E+00  0.5659E+00
     -2.847  0.4012E-01  0.3897E-01  0.5558E+00  0.5712E+00
     -2.712  0.4251E-01  0.5286E-01  0.5616E+00  0.5784E+00
     -2.576  0.1111E-01  0.1091E-01  0.5631E+00  0.5798E+00
     -2.440  0.7361E-02  0.1003E-01  0.5641E+00  0.5812E+00
     -2.305  0.2236E-01  0.1934E-01  0.5672E+00  0.5839E+00
     -2.169  0.3888E-03  0.5068E-10  0.5673E+00  0.5839E+00
     -2.033  0.5852E-01  0.7574E-02  0.5752E+00  0.5849E+00
     -1.898  0.4801E-01  0.5098E-01  0.5817E+00  0.5918E+00
     -1.762  0.7099E-01  0.6341E-01  0.5913E+00  0.6004E+00
     -1.626  0.5255E-01  0.4019E-01  0.5985E+00  0.6059E+00
     -1.491  0.4236E-01  0.4510E-01  0.6042E+00  0.6120E+00
     -1.355  0.2947E-01  0.2741E-01  0.6082E+00  0.6157E+00
     -1.219  0.6032E-01  0.5771E-02  0.6165E+00  0.6165E+00
     -1.084  0.5403E-03  0.1304E-01  0.6165E+00  0.6183E+00
     -0.948  0.7849E-02  0.1943E-01  0.6176E+00  0.6209E+00
     -0.812  0.1179E-01  0.1176E-01  0.6192E+00  0.6225E+00
     -0.677  0.3727E-02  0.8825E-02  0.6197E+00  0.6237E+00
     -0.541  0.1793E-01  0.8867E-02  0.6221E+00  0.6249E+00
     -0.406  0.2061E-01  0.7990E-03  0.6249E+00  0.6250E+00
     -0.270  0.1629E-01  0.1774E-01  0.6271E+00  0.6274E+00
     -0.134  0.8700E-02  0.1107E-01  0.6283E+00  0.6290E+00
      0.001  0.5432E-02  0.7232E-03  0.6291E+00  0.6291E+00
      0.137  0.5645E-02  0.5970E-02  0.6298E+00  0.6299E+00
      0.273  0.2916E-01  0.2972E-01  0.6338E+00  0.6339E+00
      0.408  0.2199E-01  0.3186E-01  0.6368E+00  0.6382E+00
      0.544  0.1911E-01  0.1269E-01  0.6394E+00  0.6400E+00
      0.680  0.1923E-01  0.3075E-01  0.6420E+00  0.6442E+00
      0.815  0.7205E-01  0.6607E-01  0.6518E+00  0.6532E+00
      0.951  0.5548E-01  0.6515E-01  0.6593E+00  0.6620E+00
      1.087  0.1102E+00  0.1010E+00  0.6743E+00  0.6758E+00
      1.222  0.7523E-01  0.7779E-01  0.6845E+00  0.6863E+00
      1.358  0.8138E-01  0.7296E-01  0.6956E+00  0.6962E+00
      1.494  0.4522E-01  0.4718E-01  0.7017E+00  0.7027E+00
      1.629  0.6210E-01  0.6376E-01  0.7102E+00  0.7113E+00
      1.765  0.1011E+00  0.1185E+00  0.7239E+00  0.7274E+00
      1.901  0.1561E+00  0.1439E+00  0.7451E+00  0.7469E+00
      2.036  0.7262E-01  0.6925E-01  0.7550E+00  0.7563E+00
      2.172  0.7379E-01  0.7306E-01  0.7650E+00  0.7663E+00
      2.308  0.5070E-01  0.5386E-01  0.7719E+00  0.7736E+00
      2.443  0.6296E-01  0.6151E-01  0.7805E+00  0.7820E+00
      2.579  0.5750E-01  0.5699E-01  0.7883E+00  0.7897E+00
      2.715  0.6729E-01  0.6060E-01  0.7974E+00  0.7980E+00
      2.850  0.1912E-01  0.1493E-01  0.8000E+00  0.8000E+00
      2.986  0.0000E+00  0.0000E+00  0.8000E+00  0.8000E+00
      3.121  0.0000E+00  0.0000E+00  0.8000E+00  0.8000E+00
      3.257  0.0000E+00  0.0000E+00  0.8000E+00  0.8000E+00
      3.393  0.0000E+00  0.0000E+00  0.8000E+00  0.8000E+00
      3.528  0.0000E+00  0.0000E+00  0.8000E+00  0.8000E+00
      3.664  0.0000E+00  0.0000E+00  0.8000E+00  0.8000E+00
      3.800  0.0000E+00  0.0000E+00  0.8000E+00  0.8000E+00
      3.935  0.0000E+00  0.0000E+00  0.8000E+00  0.8000E+00
      4.071  0.0000E+00  0.0000E+00  0.8000E+00  0.8000E+00
      4.207  0.0000E+00  0.0000E+00  0.8000E+00  0.8000E+00
      4.342  0.0000E+00  0.0000E+00  0.8000E+00  0.8000E+00
      4.478  0.0000E+00  0.0000E+00  0.8000E+00  0.8000E+00
      4.614  0.0000E+00  0.0000E+00  0.8000E+00  0.8000E+00
