       N       E                     dE             d eps       ncg     rms          rms(c)
DAV:   1     0.578565584277E+04    0.57857E+04   -0.17310E+05 14264   0.150E+03
DAV:   2     0.681697599663E+03   -0.51040E+04   -0.47750E+04 13552   0.614E+02
DAV:   3    -0.402645819798E+03   -0.10843E+04   -0.10302E+04 21104   0.223E+02
DAV:   4    -0.498973756516E+03   -0.96328E+02   -0.94665E+02 20144   0.825E+01
DAV:   5    -0.502768520267E+03   -0.37948E+01   -0.37378E+01 20672   0.196E+01    0.148E+02
RMM:   6    -0.602704650267E+03   -0.99936E+02   -0.13741E+03 17722   0.622E+01    0.211E+02
RMM:   7    -0.490804443302E+03    0.11190E+03   -0.12390E+02 16990   0.201E+01    0.103E+02
RMM:   8    -0.451939399971E+03    0.38865E+02   -0.69948E+01 15469   0.120E+01    0.738E+01
RMM:   9    -0.411300962646E+03    0.40638E+02   -0.13362E+02 16025   0.171E+01    0.396E+01
RMM:  10    -0.399891650213E+03    0.11409E+02   -0.17138E+01 13704   0.125E+01    0.423E+01
RMM:  11    -0.402687753635E+03   -0.27961E+01   -0.99532E+00 14973   0.645E+00    0.356E+01
RMM:  12    -0.400404861763E+03    0.22829E+01   -0.97662E+00 15065   0.522E+00    0.228E+01
RMM:  13    -0.407398731568E+03   -0.69939E+01   -0.36570E+00 14633   0.315E+00    0.381E+01
RMM:  14    -0.407345717549E+03    0.53014E-01   -0.47533E-01 15915   0.218E+00    0.385E+01
RMM:  15    -0.407418099038E+03   -0.72381E-01   -0.21498E-01 16254   0.543E-01    0.390E+01
RMM:  16    -0.405241043686E+03    0.21771E+01   -0.10525E+00 14170   0.133E+00    0.156E+01
RMM:  17    -0.410469558180E+03   -0.52285E+01   -0.23189E+00 14485   0.238E+00    0.145E+01
RMM:  18    -0.413219457271E+03   -0.27499E+01   -0.80151E-01 14129   0.181E+00    0.132E+01
RMM:  19    -0.417712892216E+03   -0.44934E+01   -0.17147E+00 14068   0.172E+00    0.175E+01
RMM:  20    -0.419230843175E+03   -0.15180E+01   -0.28290E-01 14349   0.138E+00    0.219E+01
RMM:  21    -0.418745025580E+03    0.48582E+00   -0.15485E-01 14892   0.562E-01    0.183E+01
RMM:  22    -0.419390860811E+03   -0.64584E+00   -0.28187E-01 14167   0.945E-01    0.179E+01
RMM:  23    -0.419878628896E+03   -0.48777E+00   -0.35231E-01 14150   0.109E+00    0.150E+01
RMM:  24    -0.421348222038E+03   -0.14696E+01   -0.10038E+00 14740   0.142E+00    0.115E+01
RMM:  25    -0.425528565175E+03   -0.41803E+01   -0.10228E+00 14564   0.146E+00    0.275E+01
RMM:  26    -0.425434373952E+03    0.94191E-01   -0.21992E-01 15164   0.857E-01    0.248E+01
RMM:  27    -0.424227078424E+03    0.12073E+01   -0.21309E-01 15188   0.587E-01    0.214E+01
RMM:  28    -0.424006781800E+03    0.22030E+00   -0.96869E-02 14391   0.365E-01    0.196E+01
RMM:  29    -0.424081441709E+03   -0.74660E-01   -0.12033E-02 14686   0.181E-01    0.196E+01
RMM:  30    -0.424961897109E+03   -0.88046E+00   -0.68890E-02 14458   0.308E-01    0.238E+01
RMM:  31    -0.424242422435E+03    0.71947E+00   -0.79933E-01 14841   0.888E-01    0.229E+01
RMM:  32    -0.424086956804E+03    0.15547E+00   -0.13296E-01 14375   0.471E-01    0.225E+01
RMM:  33    -0.424061788047E+03    0.25169E-01   -0.28947E-02 15970   0.163E-01    0.225E+01
RMM:  34    -0.423874377187E+03    0.18741E+00   -0.61082E-02 13966   0.257E-01    0.222E+01
RMM:  35    -0.422831781353E+03    0.10426E+01   -0.52985E-01 14877   0.844E-01    0.207E+01
RMM:  36    -0.422014663481E+03    0.81712E+00   -0.38216E-01 14787   0.851E-01    0.210E+01
RMM:  37    -0.421505796923E+03    0.50887E+00   -0.45849E-01 13884   0.964E-01    0.215E+01
RMM:  38    -0.419530867509E+03    0.19749E+01   -0.28985E-01 14744   0.774E-01    0.227E+01
RMM:  39    -0.419677609394E+03   -0.14674E+00   -0.36524E-02 15603   0.251E-01    0.227E+01
RMM:  40    -0.419627850849E+03    0.49759E-01   -0.83430E-03 13270   0.742E-02    0.227E+01
RMM:  41    -0.420328608722E+03   -0.70076E+00   -0.13341E-02 14022   0.169E-01    0.228E+01
RMM:  42    -0.421446364863E+03   -0.11178E+01   -0.22166E-02 14285   0.207E-01    0.230E+01
RMM:  43    -0.422006048307E+03   -0.55968E+00   -0.10821E-02 14492   0.148E-01    0.230E+01
RMM:  44    -0.426217590151E+03   -0.42115E+01   -0.28896E-01 14425   0.686E-01    0.256E+01
RMM:  45    -0.428836330187E+03   -0.26187E+01   -0.14610E-01 15130   0.571E-01    0.348E+01
RMM:  46    -0.430031522079E+03   -0.11952E+01   -0.45372E-02 15272   0.344E-01    0.386E+01
RMM:  47    -0.430175380377E+03   -0.14386E+00   -0.10309E-02 13235   0.153E-01    0.392E+01
RMM:  48    -0.429664278688E+03    0.51110E+00   -0.18796E-02 14674   0.204E-01    0.360E+01
RMM:  49    -0.429699232055E+03   -0.34953E-01   -0.81347E-02 15025   0.400E-01    0.340E+01
RMM:  50    -0.430202814674E+03   -0.50358E+00   -0.41054E-02 14958   0.293E-01    0.338E+01
RMM:  51    -0.429371338009E+03    0.83148E+00   -0.33225E-01 14126   0.818E-01    0.351E+01
RMM:  52    -0.430009463651E+03   -0.63813E+00   -0.24337E-02 14593   0.513E-01    0.348E+01
RMM:  53    -0.430280203835E+03   -0.27074E+00   -0.10881E-02 14803   0.140E-01    0.347E+01
RMM:  54    -0.430301573669E+03   -0.21370E-01   -0.48844E-03 15059   0.137E-01    0.346E+01
RMM:  55    -0.429188279504E+03    0.11133E+01   -0.17933E-02 15451   0.192E-01    0.329E+01
RMM:  56    -0.425604663030E+03    0.35836E+01   -0.35707E-01 14617   0.850E-01    0.206E+01
RMM:  57    -0.426209563776E+03   -0.60490E+00   -0.10680E-01 14575   0.617E-01    0.202E+01
RMM:  58    -0.425791235668E+03    0.41833E+00   -0.77926E-02 15188   0.352E-01    0.206E+01
RMM:  59    -0.425592457616E+03    0.19878E+00   -0.17053E-01 15234   0.535E-01    0.177E+01
RMM:  60    -0.426188872303E+03   -0.59641E+00   -0.20744E-01 14770   0.449E-01    0.202E+01
RMM:  61    -0.430037814901E+03   -0.38489E+01   -0.11421E+00 14884   0.139E+00    0.250E+01
RMM:  62    -0.431013250952E+03   -0.97544E+00   -0.39182E-01 14643   0.937E-01    0.264E+01
RMM:  63    -0.432546507149E+03   -0.15333E+01   -0.68484E-01 14986   0.797E-01    0.270E+01
RMM:  64    -0.432592335414E+03   -0.45828E-01   -0.43941E-01 15273   0.784E-01    0.243E+01
RMM:  65    -0.430898569826E+03    0.16938E+01   -0.44633E-01 15132   0.773E-01    0.222E+01
RMM:  66    -0.427762086168E+03    0.31365E+01   -0.11527E+00 14864   0.150E+00    0.187E+01
RMM:  67    -0.427810430074E+03   -0.48344E-01   -0.35935E-01 15160   0.593E-01    0.186E+01
RMM:  68    -0.427841781953E+03   -0.31352E-01   -0.77769E-02 15337   0.179E-01    0.186E+01
RMM:  69    -0.427655973069E+03    0.18581E+00   -0.21286E-02 14386   0.160E-01    0.184E+01
RMM:  70    -0.426824933901E+03    0.83104E+00   -0.31231E-01 13689   0.490E-01    0.170E+01
RMM:  71    -0.426977047106E+03   -0.15211E+00   -0.29350E-01 14514   0.695E-01    0.159E+01
RMM:  72    -0.427578082484E+03   -0.60104E+00   -0.52960E-01 14263   0.855E-01    0.145E+01
RMM:  73    -0.427599893168E+03   -0.21811E-01   -0.82597E-02 15320   0.409E-01    0.146E+01
RMM:  74    -0.427626567894E+03   -0.26675E-01   -0.34530E-02 14722   0.143E-01    0.146E+01
RMM:  75    -0.427542643089E+03    0.83925E-01   -0.43854E-02 14100   0.201E-01    0.146E+01
RMM:  76    -0.427469793043E+03    0.72850E-01   -0.27325E-01 13122   0.694E-01    0.150E+01
RMM:  77    -0.427249655099E+03    0.22014E+00   -0.21855E-01 14281   0.675E-01    0.133E+01
RMM:  78    -0.427378286067E+03   -0.12863E+00   -0.66351E-02 14993   0.372E-01    0.130E+01
RMM:  79    -0.427129259440E+03    0.24903E+00   -0.37105E-02 15281   0.317E-01    0.121E+01
RMM:  80    -0.426929823253E+03    0.19944E+00   -0.67314E-02 14823   0.364E-01    0.118E+01
RMM:  81    -0.427104499987E+03   -0.17468E+00   -0.15004E-01 14520   0.562E-01    0.123E+01
RMM:  82    -0.426982263316E+03    0.12224E+00   -0.10297E-01 14415   0.471E-01    0.122E+01
RMM:  83    -0.427002006652E+03   -0.19743E-01   -0.13312E-02 14212   0.198E-01    0.122E+01
RMM:  84    -0.426944639178E+03    0.57367E-01   -0.17508E-02 14193   0.138E-01    0.121E+01
RMM:  85    -0.427004596240E+03   -0.59957E-01   -0.20579E-02 11762   0.158E-01    0.122E+01
RMM:  86    -0.426188585207E+03    0.81601E+00   -0.40333E-01 13064   0.759E-01    0.123E+01
RMM:  87    -0.426166369343E+03    0.22216E-01   -0.10612E+00 13385   0.120E+00    0.133E+01
RMM:  88    -0.426158870969E+03    0.74984E-02   -0.10508E-01 13160   0.779E-01    0.133E+01
RMM:  89    -0.426146995909E+03    0.11875E-01   -0.35915E-02 13094   0.149E-01    0.133E+01
RMM:  90    -0.426189332097E+03   -0.42336E-01   -0.19726E-02 11779   0.150E-01    0.133E+01
RMM:  91    -0.426698921931E+03   -0.50959E+00   -0.44794E+00 13010   0.264E+00    0.254E+01
RMM:  92    -0.428004992842E+03   -0.13061E+01   -0.16938E+00 12938   0.193E+00    0.207E+01
RMM:  93    -0.427041676655E+03    0.96332E+00   -0.16489E+00 14322   0.150E+00    0.145E+01
RMM:  94    -0.426838550044E+03    0.20313E+00   -0.72068E-01 15421   0.993E-01    0.900E+00
RMM:  95    -0.426814212222E+03    0.24338E-01   -0.27462E-01 15432   0.574E-01    0.613E+00
RMM:  96    -0.426786812642E+03    0.27400E-01   -0.34305E-01 14263   0.897E-01    0.123E+01
RMM:  97    -0.426707382241E+03    0.79430E-01   -0.85632E-02 14651   0.621E-01    0.111E+01
RMM:  98    -0.426930094550E+03   -0.22271E+00   -0.24006E-01 14409   0.693E-01    0.533E+00
RMM:  99    -0.426999211919E+03   -0.69117E-01   -0.91801E-02 14880   0.544E-01    0.679E+00
RMM: 100    -0.427051286552E+03   -0.52075E-01   -0.19250E-01 15109   0.445E-01
   1 F= -.43948949E+03 E0= -.43948606E+03  d E =-.439489E+03  mag=     0.3780
       N       E                     dE             d eps       ncg     rms          rms(c)
DAV:   1    -0.427213062656E+03   -0.21385E+00   -0.12926E+01 13696   0.916E+00    0.154E+01
RMM:   2    -0.485790275836E+03   -0.58577E+02   -0.42639E+00 16278   0.429E+00    0.552E+01
RMM:   3    -0.425012286924E+03    0.60778E+02   -0.27825E+01 13609   0.748E+00    0.730E+00
RMM:   4    -0.426413997869E+03   -0.14017E+01   -0.19497E+00 14499   0.228E+00    0.191E+01
RMM:   5    -0.426873423804E+03   -0.45943E+00   -0.41551E-01 16735   0.783E-01    0.149E+01
RMM:   6    -0.427039627156E+03   -0.16620E+00   -0.63851E-01 14865   0.901E-01    0.760E+00
RMM:   7    -0.426618634523E+03    0.42099E+00   -0.59568E-01 15627   0.937E-01    0.360E+00
RMM:   8    -0.426680915160E+03   -0.62281E-01   -0.12525E-01 16738   0.629E-01    0.352E+00
RMM:   9    -0.427013797280E+03   -0.33288E+00   -0.12315E-01 15856   0.561E-01    0.217E+00
RMM:  10    -0.427231192580E+03   -0.21740E+00   -0.79652E-02 16307   0.439E-01    0.186E+00
RMM:  11    -0.427229600969E+03    0.15916E-02   -0.14462E-02 16120   0.202E-01    0.163E+00
RMM:  12    -0.427205126055E+03    0.24475E-01   -0.70401E-03 14856   0.126E-01    0.113E+00
RMM:  13    -0.427237284523E+03   -0.32158E-01   -0.45739E-03 16265   0.114E-01    0.978E-01
RMM:  14    -0.427289466981E+03   -0.52182E-01   -0.83101E-03 16078   0.159E-01    0.782E-01
RMM:  15    -0.427377209858E+03   -0.87743E-01   -0.12063E-02 16262   0.190E-01    0.698E-01
RMM:  16    -0.427499947667E+03   -0.12274E+00   -0.15893E-02 15350   0.172E-01    0.923E-01
RMM:  17    -0.427531494133E+03   -0.31546E-01   -0.33684E-03 16370   0.106E-01    0.969E-01
RMM:  18    -0.427531515062E+03   -0.20929E-04   -0.14399E-03 14998   0.616E-02    0.785E-01
RMM:  19    -0.427532638896E+03   -0.11238E-02   -0.73701E-04 14265   0.459E-02    0.625E-01
RMM:  20    -0.427554676629E+03   -0.22038E-01   -0.17474E-03 14984   0.632E-02    0.374E-01
RMM:  21    -0.427597550250E+03   -0.42874E-01   -0.51176E-03 14791   0.875E-02    0.682E-01
RMM:  22    -0.427633265195E+03   -0.35715E-01   -0.59837E-03 14931   0.129E-01    0.651E-01
RMM:  23    -0.427659234561E+03   -0.25969E-01   -0.95313E-03 15843   0.162E-01    0.323E-01
RMM:  24    -0.427669776324E+03   -0.10542E-01   -0.34865E-03 15625   0.999E-02    0.206E-01
RMM:  25    -0.427680230491E+03   -0.10454E-01   -0.27840E-03 15270   0.718E-02    0.162E-01
RMM:  26    -0.427686625504E+03   -0.63950E-02   -0.14140E-03 13239   0.591E-02    0.218E-01
RMM:  27    -0.427689748405E+03   -0.31229E-02   -0.53349E-04 11636   0.372E-02    0.208E-01
RMM:  28    -0.427690616155E+03   -0.86775E-03   -0.13995E-04  9689   0.219E-02    0.199E-01
RMM:  29    -0.427689488173E+03    0.11280E-02   -0.17986E-04  9264   0.282E-02    0.264E-01
RMM:  30    -0.427688693303E+03    0.79487E-03   -0.86448E-05  8735   0.196E-02    0.287E-01
RMM:  31    -0.427686216852E+03    0.24765E-02   -0.31611E-04 10119   0.300E-02    0.286E-01
RMM:  32    -0.427686280363E+03   -0.63511E-04   -0.10769E-04  8578   0.246E-02    0.282E-01
RMM:  33    -0.427686569580E+03   -0.28922E-03   -0.60068E-04 10408   0.368E-02    0.196E-01
RMM:  34    -0.427691770762E+03   -0.52012E-02   -0.33463E-04 10868   0.350E-02    0.152E-01
RMM:  35    -0.427694741961E+03   -0.29712E-02   -0.19793E-04 10630   0.236E-02    0.151E-01
RMM:  36    -0.427696122079E+03   -0.13801E-02   -0.83380E-05  9285   0.246E-02    0.141E-01
RMM:  37    -0.427697190233E+03   -0.10682E-02   -0.73341E-05  9334   0.174E-02    0.130E-01
RMM:  38    -0.427697719735E+03   -0.52950E-03   -0.45757E-05  8460   0.173E-02    0.142E-01
RMM:  39    -0.427697703492E+03    0.16244E-04   -0.29195E-05  8246   0.127E-02    0.150E-01
RMM:  40    -0.427697622265E+03    0.81227E-04   -0.34997E-05  8139   0.123E-02    0.154E-01
RMM:  41    -0.427697666889E+03   -0.44625E-04   -0.13582E-05  7732   0.103E-02    0.148E-01
RMM:  42    -0.427697704236E+03   -0.37347E-04   -0.28914E-06  5713   0.482E-03    0.146E-01
RMM:  43    -0.427697765804E+03   -0.61568E-04   -0.19628E-06  5739   0.460E-03    0.144E-01
RMM:  44    -0.427697917442E+03   -0.15164E-03   -0.58229E-06  5980   0.502E-03    0.140E-01
RMM:  45    -0.427698238749E+03   -0.32131E-03   -0.26285E-05  7855   0.930E-03    0.132E-01
RMM:  46    -0.427698691248E+03   -0.45250E-03   -0.71999E-05  8373   0.145E-02    0.125E-01
RMM:  47    -0.427698553820E+03    0.13743E-03   -0.31742E-05  7781   0.143E-02    0.140E-01
RMM:  48    -0.427698416780E+03    0.13704E-03   -0.12405E-05  5842   0.779E-03    0.145E-01
RMM:  49    -0.427698315560E+03    0.10122E-03   -0.87485E-06  6357   0.657E-03    0.145E-01
RMM:  50    -0.427698074179E+03    0.24138E-03   -0.33991E-05  7885   0.101E-02    0.151E-01
RMM:  51    -0.427697184076E+03    0.89010E-03   -0.31177E-04  9755   0.277E-02    0.171E-01
RMM:  52    -0.427697475341E+03   -0.29126E-03   -0.10989E-04  8299   0.254E-02    0.149E-01
RMM:  53    -0.427697303560E+03    0.17178E-03   -0.30609E-05  7645   0.976E-03    0.153E-01
RMM:  54    -0.427697706152E+03   -0.40259E-03   -0.50425E-05  7820   0.154E-02    0.136E-01
RMM:  55    -0.427698004657E+03   -0.29851E-03   -0.20174E-05  6893   0.992E-03    0.133E-01
RMM:  56    -0.427697707325E+03    0.29733E-03   -0.45127E-05  7866   0.125E-02    0.145E-01
RMM:  57    -0.427697667391E+03    0.39934E-04   -0.17873E-05  6595   0.851E-03    0.141E-01
RMM:  58    -0.427697484152E+03    0.18324E-03   -0.28395E-05  7730   0.928E-03    0.144E-01
RMM:  59    -0.427697222222E+03    0.26193E-03   -0.51475E-05  8170   0.128E-02    0.148E-01
RMM:  60    -0.427696999025E+03    0.22320E-03   -0.65081E-05  8475   0.145E-02    0.150E-01
RMM:  61    -0.427697125139E+03   -0.12611E-03   -0.24732E-05  7741   0.127E-02    0.140E-01
RMM:  62    -0.427696912995E+03    0.21214E-03   -0.30199E-05  7547   0.950E-03    0.146E-01
RMM:  63    -0.427696943350E+03   -0.30355E-04   -0.10814E-05  7045   0.975E-03    0.142E-01
RMM:  64    -0.427696984929E+03   -0.41580E-04   -0.25693E-06  5400   0.436E-03    0.141E-01
RMM:  65    -0.427697047804E+03   -0.62874E-04   -0.23157E-06  5384   0.467E-03    0.140E-01
RMM:  66    -0.427697149154E+03   -0.10135E-03   -0.61716E-06  5498   0.478E-03    0.138E-01
RMM:  67    -0.427697446444E+03   -0.29729E-03   -0.47749E-05  7667   0.113E-02    0.133E-01
RMM:  68    -0.427698107422E+03   -0.66098E-03   -0.25253E-04  9532   0.244E-02    0.121E-01
RMM:  69    -0.427698349077E+03   -0.24166E-03   -0.11133E-04  8209   0.212E-02    0.130E-01
RMM:  70    -0.427698792217E+03   -0.44314E-03   -0.16685E-04  9245   0.190E-02    0.126E-01
RMM:  71    -0.427698809795E+03   -0.17578E-04   -0.51819E-05  7724   0.173E-02    0.136E-01
RMM:  72    -0.427699345569E+03   -0.53577E-03   -0.17109E-04  9179   0.198E-02    0.123E-01
RMM:  73    -0.427698971865E+03    0.37370E-03   -0.96453E-05  8073   0.231E-02    0.142E-01
RMM:  74    -0.427698979302E+03   -0.74368E-05   -0.10909E-05  5639   0.917E-03
   2 F= -.44002214E+03 E0= -.44002046E+03  d E =-.532653E+00  mag=    -2.6387
       N       E                     dE             d eps       ncg     rms          rms(c)
DAV:   1    -0.427697722030E+03    0.12498E-02   -0.24420E-03 14912   0.163E-01    0.196E-01
RMM:   2    -0.427699877603E+03   -0.21556E-02   -0.29391E-03 14772   0.107E-01    0.575E-01
RMM:   3    -0.427698374057E+03    0.15035E-02   -0.12448E-03 10306   0.602E-02    0.155E-01
RMM:   4    -0.427698653865E+03   -0.27981E-03   -0.13888E-04  8882   0.268E-02    0.167E-01
RMM:   5    -0.427698841373E+03   -0.18751E-03   -0.71829E-05  8449   0.191E-02    0.161E-01
RMM:   6    -0.427698992994E+03   -0.15162E-03   -0.39671E-05  7926   0.158E-02    0.158E-01
RMM:   7    -0.427698892110E+03    0.10088E-03   -0.16359E-05  7426   0.119E-02    0.164E-01
RMM:   8    -0.427699539967E+03   -0.64786E-03   -0.47986E-04 10707   0.349E-02    0.132E-01
RMM:   9    -0.427700290626E+03   -0.75066E-03   -0.78791E-04 11936   0.482E-02    0.109E-01
RMM:  10    -0.427701223914E+03   -0.93329E-03   -0.10342E-03 11028   0.512E-02    0.112E-01
RMM:  11    -0.427701507731E+03   -0.28382E-03   -0.36749E-04  9337   0.403E-02    0.129E-01
RMM:  12    -0.427701391730E+03    0.11600E-03   -0.79304E-05  8587   0.180E-02    0.135E-01
RMM:  13    -0.427701387548E+03    0.41820E-05   -0.15820E-05  7831   0.101E-02
   3 F= -.44002676E+03 E0= -.44002520E+03  d E =-.537271E+00  mag=    -2.6438
       N       E                     dE             d eps       ncg     rms          rms(c)
DAV:   1    -0.427695702566E+03    0.56892E-02   -0.47009E-02 14720   0.719E-01    0.602E-01
RMM:   2    -0.427705480119E+03   -0.97776E-02   -0.20881E-02 15422   0.361E-01    0.149E+00
RMM:   3    -0.427695936336E+03    0.95438E-02   -0.11587E-02 15271   0.189E-01    0.385E-01
RMM:   4    -0.427696433226E+03   -0.49689E-03   -0.13441E-03 15145   0.988E-02    0.297E-01
RMM:   5    -0.427696511713E+03   -0.78487E-04   -0.55356E-04 15761   0.485E-02    0.168E-01
RMM:   6    -0.427696745395E+03   -0.23368E-03   -0.16649E-04 10338   0.271E-02    0.145E-01
RMM:   7    -0.427696992649E+03   -0.24725E-03   -0.82745E-05  8688   0.195E-02    0.148E-01
RMM:   8    -0.427697069056E+03   -0.76407E-04   -0.35330E-05  8173   0.148E-02    0.151E-01
RMM:   9    -0.427694980345E+03    0.20887E-02   -0.12534E-03 10860   0.618E-02    0.214E-01
RMM:  10    -0.427696368191E+03   -0.13878E-02   -0.65231E-04  9958   0.539E-02    0.163E-01
RMM:  11    -0.427697076368E+03   -0.70818E-03   -0.76740E-04 12138   0.507E-02    0.105E-01
RMM:  12    -0.427697858783E+03   -0.78242E-03   -0.63880E-04 11165   0.474E-02    0.981E-02
RMM:  13    -0.427698468636E+03   -0.60985E-03   -0.39153E-04 10279   0.339E-02    0.993E-02
RMM:  14    -0.427698698756E+03   -0.23012E-03   -0.13797E-04  8861   0.252E-02    0.113E-01
RMM:  15    -0.427698551919E+03    0.14684E-03   -0.47385E-05  8181   0.168E-02    0.122E-01
RMM:  16    -0.427698594146E+03   -0.42226E-04   -0.10151E-05  7757   0.875E-03    0.118E-01
RMM:  17    -0.427698795323E+03   -0.20118E-03   -0.16650E-05  7760   0.856E-03    0.112E-01
RMM:  18    -0.427699240984E+03   -0.44566E-03   -0.95427E-05  8660   0.166E-02    0.101E-01
RMM:  19    -0.427699284094E+03   -0.43110E-04   -0.37273E-05  7974   0.152E-02    0.109E-01
RMM:  20    -0.427699154708E+03    0.12939E-03   -0.13058E-05  7587   0.909E-03    0.114E-01
RMM:  21    -0.427699432128E+03   -0.27742E-03   -0.21857E-05  7732   0.959E-03    0.107E-01
RMM:  22    -0.427699382097E+03    0.50031E-04   -0.95120E-06  7541   0.856E-03    0.115E-01
RMM:  23    -0.427699077255E+03    0.30484E-03   -0.50549E-05  8020   0.125E-02    0.128E-01
RMM:  24    -0.427698983719E+03    0.93536E-04   -0.23879E-05  7510   0.990E-03    0.125E-01
RMM:  25    -0.427698931097E+03    0.52623E-04   -0.11395E-05  6905   0.681E-03    0.124E-01
RMM:  26    -0.427698886232E+03    0.44864E-04   -0.61499E-06  6279   0.621E-03    0.123E-01
RMM:  27    -0.427698935499E+03   -0.49267E-04   -0.24059E-06  5289   0.469E-03    0.121E-01
RMM:  28    -0.427698809318E+03    0.12618E-03   -0.13400E-05  7314   0.653E-03    0.126E-01
RMM:  29    -0.427697662469E+03    0.11468E-02   -0.43516E-04  9857   0.331E-02    0.156E-01
RMM:  30    -0.427697974923E+03   -0.31245E-03   -0.16053E-04  8287   0.274E-02    0.136E-01
RMM:  31    -0.427698290330E+03   -0.31541E-03   -0.50587E-05  7081   0.159E-02    0.122E-01
RMM:  32    -0.427698557564E+03   -0.26723E-03   -0.44409E-05  7481   0.132E-02    0.117E-01
RMM:  33    -0.427698995192E+03   -0.43763E-03   -0.11854E-04  8574   0.188E-02    0.109E-01
RMM:  34    -0.427699724810E+03   -0.72962E-03   -0.46450E-04 10240   0.346E-02    0.988E-02
RMM:  35    -0.427699824895E+03   -0.10009E-03   -0.18772E-04  8369   0.302E-02    0.118E-01
RMM:  36    -0.427699850890E+03   -0.25995E-04   -0.26049E-05  7422   0.106E-02    0.120E-01
RMM:  37    -0.427699842385E+03    0.85048E-05   -0.82558E-06  6888   0.791E-03
   4 F= -.44003492E+03 E0= -.44003341E+03  d E =-.545430E+00  mag=    -2.6723
       N       E                     dE             d eps       ncg     rms          rms(c)
DAV:   1    -0.427680236559E+03    0.19614E-01   -0.82341E-01 14448   0.301E+00    0.234E+00
RMM:   2    -0.427867282111E+03   -0.18705E+00   -0.31892E-01 15587   0.146E+00    0.117E+01
RMM:   3    -0.427653359210E+03    0.21392E+00   -0.16288E-01 15616   0.706E-01    0.114E+00
RMM:   4    -0.427674125429E+03   -0.20766E-01   -0.37081E-02 15219   0.426E-01    0.150E+00
RMM:   5    -0.427664597903E+03    0.95275E-02   -0.70121E-03 16043   0.186E-01    0.643E-01
RMM:   6    -0.427664289277E+03    0.30863E-03   -0.17289E-03 16708   0.831E-02    0.372E-01
RMM:   7    -0.427665126524E+03   -0.83725E-03   -0.59403E-04 16195   0.490E-02    0.351E-01
RMM:   8    -0.427665196121E+03   -0.69597E-04   -0.25479E-04 14356   0.352E-02    0.283E-01
RMM:   9    -0.427665425074E+03   -0.22895E-03   -0.11156E-04  9028   0.213E-02    0.246E-01
RMM:  10    -0.427665873864E+03   -0.44879E-03   -0.15061E-04  9993   0.269E-02    0.244E-01
RMM:  11    -0.427666107760E+03   -0.23390E-03   -0.30999E-04 12257   0.360E-02    0.206E-01
RMM:  12    -0.427666074156E+03    0.33604E-04   -0.68215E-04 12345   0.476E-02    0.117E-01
RMM:  13    -0.427666334920E+03   -0.26076E-03   -0.45598E-04 11238   0.387E-02    0.914E-02
RMM:  14    -0.427666669548E+03   -0.33463E-03   -0.56773E-04 10881   0.396E-02    0.954E-02
RMM:  15    -0.427667288756E+03   -0.61921E-03   -0.29645E-04 10041   0.337E-02    0.102E-01
RMM:  16    -0.427667933983E+03   -0.64523E-03   -0.33108E-04 10111   0.317E-02    0.980E-02
RMM:  17    -0.427668419174E+03   -0.48519E-03   -0.22694E-04  9637   0.299E-02    0.102E-01
RMM:  18    -0.427668834414E+03   -0.41524E-03   -0.18653E-04  9576   0.255E-02    0.105E-01
RMM:  19    -0.427669413489E+03   -0.57907E-03   -0.35769E-04 10763   0.338E-02    0.102E-01
RMM:  20    -0.427669824239E+03   -0.41075E-03   -0.23207E-04  9922   0.300E-02    0.815E-02
RMM:  21    -0.427669808223E+03    0.16016E-04   -0.48122E-04 10780   0.371E-02    0.535E-02
RMM:  22    -0.427669984052E+03   -0.17583E-03   -0.21329E-04  9336   0.327E-02    0.403E-02
RMM:  23    -0.427669965934E+03    0.18118E-04   -0.27063E-04  9949   0.271E-02    0.282E-02
RMM:  24    -0.427670060504E+03   -0.94570E-04   -0.12484E-04  8812   0.255E-02    0.288E-02
RMM:  25    -0.427669961325E+03    0.99179E-04   -0.20117E-04  8916   0.262E-02    0.588E-02
RMM:  26    -0.427670164289E+03   -0.20296E-03   -0.85263E-05  8239   0.187E-02    0.336E-02
RMM:  27    -0.427670327408E+03   -0.16312E-03   -0.31627E-05  8089   0.115E-02    0.278E-02
RMM:  28    -0.427670444341E+03   -0.11693E-03   -0.62663E-05  8431   0.148E-02    0.203E-02
RMM:  29    -0.427670506206E+03   -0.61865E-04   -0.40550E-05  8149   0.143E-02    0.219E-02
RMM:  30    -0.427670500509E+03    0.56970E-05   -0.15580E-05  7747   0.987E-03
   5 F= -.44004639E+03 E0= -.44004484E+03  d E =-.556897E+00  mag=    -2.7396
       N       E                     dE             d eps       ncg     rms          rms(c)
DAV:   1    -0.427697807646E+03   -0.27301E-01   -0.84279E-01 14576   0.336E+00    0.378E-01
RMM:   2    -0.427710925826E+03   -0.13118E-01   -0.13894E-01 18002   0.894E-01    0.437E-01
RMM:   3    -0.427711810514E+03   -0.88469E-03   -0.11724E-02 16280   0.408E-01    0.550E-01
RMM:   4    -0.427710677910E+03    0.11326E-02   -0.32358E-03 16578   0.135E-01    0.201E-01
RMM:   5    -0.427710661920E+03    0.15989E-04   -0.40758E-04 16257   0.470E-02    0.161E-01
RMM:   6    -0.427710549418E+03    0.11250E-03   -0.27822E-04 15240   0.409E-02    0.914E-02
RMM:   7    -0.427710608908E+03   -0.59490E-04   -0.14127E-04 12919   0.290E-02    0.525E-02
RMM:   8    -0.427710620893E+03   -0.11986E-04   -0.28852E-05  8325   0.154E-02    0.473E-02
RMM:   9    -0.427710625337E+03   -0.44435E-05   -0.99735E-06  7956   0.148E-02
   6 F= -.44009102E+03 E0= -.44008955E+03  d E =-.446357E-01  mag=    -2.7409
       N       E                     dE             d eps       ncg     rms          rms(c)
DAV:   1    -0.427685815637E+03    0.24805E-01   -0.57307E+00 14624   0.882E+00    0.985E-01
RMM:   2    -0.427774223366E+03   -0.88408E-01   -0.94712E-01 17980   0.235E+00    0.112E+00
RMM:   3    -0.427781831187E+03   -0.76078E-02   -0.79438E-02 16496   0.109E+00    0.160E+00
RMM:   4    -0.427772449479E+03    0.93817E-02   -0.23069E-02 17118   0.363E-01    0.518E-01
RMM:   5    -0.427772143803E+03    0.30568E-03   -0.29376E-03 17332   0.125E-01    0.403E-01
RMM:   6    -0.427771104704E+03    0.10391E-02   -0.16921E-03 16261   0.988E-02    0.228E-01
RMM:   7    -0.427771372896E+03   -0.26819E-03   -0.94352E-04 16149   0.715E-02    0.142E-01
RMM:   8    -0.427771294380E+03    0.78516E-04   -0.16476E-04 13368   0.274E-02    0.105E-01
RMM:   9    -0.427771198438E+03    0.95942E-04   -0.11421E-04 11071   0.254E-02    0.593E-02
RMM:  10    -0.427771216997E+03   -0.18559E-04   -0.37676E-05  8692   0.179E-02    0.510E-02
RMM:  11    -0.427771232465E+03   -0.15468E-04   -0.12405E-05  8004   0.150E-02    0.389E-02
RMM:  12    -0.427771269061E+03   -0.36596E-04   -0.14311E-05  8013   0.110E-02    0.299E-02
RMM:  13    -0.427771331197E+03   -0.62136E-04   -0.16771E-05  8123   0.118E-02    0.211E-02
RMM:  14    -0.427771384708E+03   -0.53511E-04   -0.81711E-06  7936   0.113E-02    0.197E-02
RMM:  15    -0.427771488200E+03   -0.10349E-03   -0.14277E-05  8075   0.870E-03    0.195E-02
RMM:  16    -0.427771589677E+03   -0.10148E-03   -0.21026E-05  8188   0.980E-03    0.142E-02
RMM:  17    -0.427771640027E+03   -0.50349E-04   -0.19077E-05  8143   0.953E-03    0.123E-02
RMM:  18    -0.427771640021E+03    0.55952E-08   -0.30233E-05  8348   0.104E-02
   7 F= -.44016380E+03 E0= -.44016244E+03  d E =-.117412E+00  mag=    -2.7714
       N       E                     dE             d eps       ncg     rms          rms(c)
DAV:   1    -0.427368513836E+03    0.40313E+00   -0.22827E+01 14672   0.179E+01    0.201E+00
RMM:   2    -0.427718454189E+03   -0.34994E+00   -0.37745E+00 18003   0.465E+00    0.195E+00
RMM:   3    -0.427784355956E+03   -0.65902E-01   -0.30958E-01 16295   0.218E+00    0.451E+00
RMM:   4    -0.427717632757E+03    0.66723E-01   -0.10393E-01 17105   0.758E-01    0.109E+00
RMM:   5    -0.427716109226E+03    0.15235E-02   -0.13564E-02 17353   0.277E-01    0.793E-01
RMM:   6    -0.427712553875E+03    0.35554E-02   -0.59493E-03 16696   0.183E-01    0.494E-01
RMM:   7    -0.427713123347E+03   -0.56947E-03   -0.42615E-03 16245   0.150E-01    0.337E-01
RMM:   8    -0.427712831237E+03    0.29211E-03   -0.81660E-04 18203   0.594E-02    0.226E-01
RMM:   9    -0.427712229894E+03    0.60134E-03   -0.49676E-04 16170   0.479E-02    0.129E-01
RMM:  10    -0.427712204532E+03    0.25362E-04   -0.22171E-04 16197   0.356E-02    0.866E-02
RMM:  11    -0.427712257807E+03   -0.53275E-04   -0.51540E-05  9003   0.195E-02    0.700E-02
RMM:  12    -0.427712296538E+03   -0.38731E-04   -0.36834E-05  8719   0.178E-02    0.531E-02
RMM:  13    -0.427712438154E+03   -0.14162E-03   -0.45695E-05  9344   0.176E-02    0.363E-02
RMM:  14    -0.427712563456E+03   -0.12530E-03   -0.18296E-05  8073   0.166E-02    0.173E-02
RMM:  15    -0.427712704413E+03   -0.14096E-03   -0.10162E-05  7999   0.105E-02    0.128E-02
RMM:  16    -0.427712840724E+03   -0.13631E-03   -0.69717E-06  7934   0.858E-03    0.139E-02
RMM:  17    -0.427712910179E+03   -0.69455E-04   -0.37904E-06  7735   0.584E-03    0.908E-03
RMM:  18    -0.427713004122E+03   -0.93943E-04   -0.43710E-06  7631   0.524E-03    0.627E-03
RMM:  19    -0.427713125028E+03   -0.12091E-03   -0.61804E-06  6769   0.497E-03    0.564E-03
RMM:  20    -0.427713274245E+03   -0.14922E-03   -0.17658E-05  7752   0.623E-03    0.427E-03
RMM:  21    -0.427713300636E+03   -0.26391E-04   -0.10970E-05  7561   0.667E-03    0.350E-03
RMM:  22    -0.427713290179E+03    0.10457E-04   -0.63046E-06  6812   0.545E-03    0.371E-03
RMM:  23    -0.427713289101E+03    0.10776E-05   -0.23941E-06  5756   0.464E-03
   8 F= -.44012893E+03 E0= -.44012720E+03  d E =-.825402E-01  mag=    -2.8237
       N       E                     dE             d eps       ncg     rms          rms(c)
DAV:   1    -0.427636266548E+03    0.77024E-01   -0.94247E+00 14624   0.115E+01    0.128E+00
RMM:   2    -0.427780159316E+03   -0.14389E+00   -0.15533E+00 18032   0.299E+00    0.133E+00
RMM:   3    -0.427801594614E+03   -0.21435E-01   -0.13586E-01 16210   0.143E+00    0.262E+00
RMM:   4    -0.427778920768E+03    0.22674E-01   -0.41653E-02 17133   0.486E-01    0.580E-01
RMM:   5    -0.427778294601E+03    0.62617E-03   -0.45760E-03 17538   0.156E-01    0.429E-01
RMM:   6    -0.427777418122E+03    0.87648E-03   -0.23686E-03 16389   0.110E-01    0.286E-01
RMM:   7    -0.427776655340E+03    0.76278E-03   -0.15166E-03 16336   0.880E-02    0.920E-02
RMM:   8    -0.427776658784E+03   -0.34441E-05   -0.33478E-04 16952   0.405E-02    0.686E-02
RMM:   9    -0.427776786817E+03   -0.12803E-03   -0.97976E-05 11555   0.240E-02    0.448E-02
RMM:  10    -0.427776960783E+03   -0.17397E-03   -0.36999E-05  8639   0.159E-02    0.290E-02
RMM:  11    -0.427777027789E+03   -0.67006E-04   -0.11884E-05  8079   0.145E-02    0.181E-02
RMM:  12    -0.427777163974E+03   -0.13619E-03   -0.10270E-05  7997   0.941E-03    0.144E-02
RMM:  13    -0.427777260122E+03   -0.96149E-04   -0.68449E-06  7905   0.895E-03    0.107E-02
RMM:  14    -0.427777338869E+03   -0.78747E-04   -0.47913E-06  7870   0.689E-03    0.837E-03
RMM:  15    -0.427777393293E+03   -0.54424E-04   -0.27330E-06  7746   0.643E-03    0.771E-03
RMM:  16    -0.427777482179E+03   -0.88886E-04   -0.48830E-06  6244   0.357E-03    0.537E-03
RMM:  17    -0.427777558168E+03   -0.75989E-04   -0.40932E-06  6409   0.466E-03    0.488E-03
RMM:  18    -0.427777735430E+03   -0.17726E-03   -0.18864E-05  7615   0.444E-03    0.527E-03
RMM:  19    -0.427777781437E+03   -0.46006E-04   -0.67305E-06  7492   0.567E-03    0.376E-03
RMM:  20    -0.427777804827E+03   -0.23390E-04   -0.60670E-06  6024   0.341E-03    0.295E-03
RMM:  21    -0.427777803020E+03    0.18065E-05   -0.32512E-06  5921   0.464E-03
   9 F= -.44017836E+03 E0= -.44017700E+03  d E =-.131970E+00  mag=    -2.7817
       N       E                     dE             d eps       ncg     rms          rms(c)
DAV:   1    -0.427771810304E+03    0.59945E-02   -0.43884E-01 14608   0.216E+00    0.150E+00
RMM:   2    -0.427812827014E+03   -0.41017E-01   -0.12264E-01 16019   0.100E+00    0.379E+00
RMM:   3    -0.427772551180E+03    0.40276E-01   -0.65534E-02 15593   0.483E-01    0.130E+00
RMM:   4    -0.427766688581E+03    0.58626E-02   -0.82096E-03 15084   0.255E-01    0.550E-01
RMM:   5    -0.427766298618E+03    0.38996E-03   -0.18600E-03 15923   0.963E-02    0.258E-01
RMM:   6    -0.427766112706E+03    0.18591E-03   -0.38701E-04 16233   0.462E-02    0.168E-01
RMM:   7    -0.427766367480E+03   -0.25477E-03   -0.19359E-04 11261   0.288E-02    0.145E-01
RMM:   8    -0.427766411458E+03   -0.43978E-04   -0.62117E-05  8709   0.209E-02    0.928E-02
RMM:   9    -0.427766501538E+03   -0.90080E-04   -0.37237E-05  8304   0.164E-02    0.707E-02
RMM:  10    -0.427766666468E+03   -0.16493E-03   -0.69395E-05  9379   0.207E-02    0.649E-02
RMM:  11    -0.427766694379E+03   -0.27912E-04   -0.37598E-05  8537   0.178E-02    0.213E-02
RMM:  12    -0.427766701235E+03   -0.68553E-05   -0.13616E-05  7966   0.149E-02
  10 F= -.44019217E+03 E0= -.44019081E+03  d E =-.138137E-01  mag=    -2.7823
       N       E                     dE             d eps       ncg     rms          rms(c)
DAV:   1    -0.427748039950E+03    0.18654E-01   -0.14328E+00 14592   0.391E+00    0.272E+00
RMM:   2    -0.427939837595E+03   -0.19180E+00   -0.41543E-01 16019   0.182E+00    0.123E+01
RMM:   3    -0.427726990087E+03    0.21285E+00   -0.19486E-01 15897   0.828E-01    0.190E+00
RMM:   4    -0.427735683346E+03   -0.86933E-02   -0.41351E-02 15136   0.482E-01    0.180E+00
RMM:   5    -0.427725363355E+03    0.10320E-01   -0.92759E-03 15913   0.214E-01    0.538E-01
RMM:   6    -0.427727897298E+03   -0.25339E-02   -0.20998E-03 16538   0.974E-02    0.508E-01
RMM:   7    -0.427729792447E+03   -0.18951E-02   -0.14139E-03 16060   0.702E-02    0.559E-01
RMM:   8    -0.427728893805E+03    0.89864E-03   -0.67102E-04 16379   0.551E-02    0.280E-01
RMM:   9    -0.427729345004E+03   -0.45120E-03   -0.14909E-04  9536   0.250E-02    0.260E-01
RMM:  10    -0.427730233094E+03   -0.88809E-03   -0.17398E-04 10347   0.251E-02    0.242E-01
RMM:  11    -0.427731032420E+03   -0.79933E-03   -0.38274E-04 13137   0.367E-02    0.187E-01
RMM:  12    -0.427731173489E+03   -0.14107E-03   -0.14596E-04 11307   0.266E-02    0.112E-01
RMM:  13    -0.427731276070E+03   -0.10258E-03   -0.10255E-04  9073   0.223E-02    0.597E-02
RMM:  14    -0.427731243775E+03    0.32296E-04   -0.75435E-05  8788   0.202E-02    0.213E-02
RMM:  15    -0.427731272200E+03   -0.28425E-04   -0.16987E-05  8066   0.152E-02    0.119E-02
RMM:  16    -0.427731273039E+03   -0.83923E-06   -0.80817E-06  7935   0.941E-03
  11 F= -.44020199E+03 E0= -.44020062E+03  d E =-.236367E-01  mag=    -2.7784
       N       E                     dE             d eps       ncg     rms          rms(c)
DAV:   1    -0.427736765423E+03   -0.54932E-02   -0.26614E-01 14368   0.128E+00    0.197E-01
RMM:   2    -0.427738825180E+03   -0.20598E-02   -0.13828E-02 16140   0.344E-01    0.400E-01
RMM:   3    -0.427738365909E+03    0.45927E-03   -0.22282E-03 15486   0.127E-01    0.238E-01
RMM:   4    -0.427738244586E+03    0.12132E-03   -0.34284E-04 12754   0.467E-02    0.142E-01
RMM:   5    -0.427738255976E+03   -0.11389E-04   -0.78204E-05  9577   0.232E-02    0.984E-02
RMM:   6    -0.427738258962E+03   -0.29865E-05   -0.12625E-04 12423   0.253E-02    0.358E-02
RMM:   7    -0.427738245378E+03    0.13584E-04   -0.16393E-05  8002   0.162E-02    0.135E-02
RMM:   8    -0.427738251198E+03   -0.58207E-05   -0.52595E-06  7787   0.109E-02
  12 F= -.44020610E+03 E0= -.44020473E+03  d E =-.410942E-02  mag=    -2.7826
       N       E                     dE             d eps       ncg     rms          rms(c)
DAV:   1    -0.427743756516E+03   -0.55111E-02   -0.10235E+00 14144   0.252E+00    0.392E-01
RMM:   2    -0.427751905403E+03   -0.81489E-02   -0.53702E-02 16155   0.677E-01    0.835E-01
RMM:   3    -0.427749568915E+03    0.23365E-02   -0.88516E-03 15813   0.252E-01    0.459E-01
RMM:   4    -0.427749088356E+03    0.48056E-03   -0.13075E-03 16557   0.866E-02    0.273E-01
RMM:   5    -0.427749059613E+03    0.28743E-04   -0.31913E-04 13076   0.332E-02    0.194E-01
RMM:   6    -0.427749105834E+03   -0.46221E-04   -0.51918E-04 16032   0.447E-02    0.761E-02
RMM:   7    -0.427749010533E+03    0.95301E-04   -0.79139E-05 11497   0.213E-02    0.226E-02
RMM:   8    -0.427749037702E+03   -0.27169E-04   -0.11108E-05  7983   0.134E-02    0.208E-02
RMM:   9    -0.427749052321E+03   -0.14619E-04   -0.38949E-06  7798   0.836E-03    0.161E-02
RMM:  10    -0.427749078230E+03   -0.25909E-04   -0.34050E-06  7835   0.627E-03    0.110E-02
RMM:  11    -0.427749099262E+03   -0.21032E-04   -0.19510E-06  7711   0.503E-03    0.875E-03
RMM:  12    -0.427749117438E+03   -0.18177E-04   -0.16427E-06  7628   0.417E-03    0.700E-03
RMM:  13    -0.427749153822E+03   -0.36384E-04   -0.17958E-06  7603   0.427E-03    0.340E-03
RMM:  14    -0.427749177843E+03   -0.24021E-04   -0.12474E-06  7561   0.400E-03    0.286E-03
RMM:  15    -0.427749200467E+03   -0.22624E-04   -0.99649E-07  5786   0.286E-03    0.188E-03
RMM:  16    -0.427749216850E+03   -0.16382E-04   -0.78074E-07  5611   0.259E-03    0.200E-03
RMM:  17    -0.427749242047E+03   -0.25197E-04   -0.85217E-07  4721   0.222E-03    0.142E-03
RMM:  18    -0.427749262451E+03   -0.20404E-04   -0.88882E-07  4749   0.234E-03    0.150E-03
RMM:  19    -0.427749285393E+03   -0.22942E-04   -0.14913E-06  5097   0.233E-03    0.138E-03
RMM:  20    -0.427749290751E+03   -0.53581E-05   -0.10493E-06  4972   0.254E-03
  13 F= -.44021152E+03 E0= -.44021013E+03  d E =-.952565E-02  mag=    -2.7878
       N       E                     dE             d eps       ncg     rms          rms(c)
DAV:   1    -0.427739278274E+03    0.10007E-01   -0.40970E+00 14144   0.503E+00    0.781E-01
RMM:   2    -0.427771686502E+03   -0.32408E-01   -0.21258E-01 16188   0.134E+00    0.172E+00
RMM:   3    -0.427762997774E+03    0.86887E-02   -0.35311E-02 15909   0.502E-01    0.961E-01
RMM:   4    -0.427760712031E+03    0.22857E-02   -0.53760E-03 17107   0.174E-01    0.527E-01
RMM:   5    -0.427760746961E+03   -0.34930E-04   -0.12145E-03 15589   0.618E-02    0.411E-01
RMM:   6    -0.427761278596E+03   -0.53164E-03   -0.23216E-03 16350   0.956E-02    0.206E-01
RMM:   7    -0.427760683887E+03    0.59471E-03   -0.38228E-04 16539   0.423E-02    0.602E-02
RMM:   8    -0.427760681572E+03    0.23153E-05   -0.65673E-05  9436   0.201E-02
  14 F= -.44021168E+03 E0= -.44021023E+03  d E =-.968230E-02  mag=    -2.7883
       N       E                     dE             d eps       ncg     rms          rms(c)
DAV:   1    -0.427752578913E+03    0.81050E-02   -0.82024E-01 14144   0.225E+00    0.340E-01
RMM:   2    -0.427759051690E+03   -0.64728E-02   -0.42485E-02 16115   0.607E-01    0.702E-01
RMM:   3    -0.427757557224E+03    0.14945E-02   -0.65926E-03 15813   0.220E-01    0.397E-01
RMM:   4    -0.427757316475E+03    0.24075E-03   -0.10044E-03 16136   0.757E-02    0.252E-01
RMM:   5    -0.427757380646E+03   -0.64171E-04   -0.24166E-04 12008   0.290E-02    0.182E-01
RMM:   6    -0.427757554094E+03   -0.17345E-03   -0.45622E-04 15601   0.428E-02    0.615E-02
RMM:   7    -0.427757515719E+03    0.38375E-04   -0.63544E-05 10703   0.197E-02    0.317E-02
RMM:   8    -0.427757518501E+03   -0.27818E-05   -0.10347E-05  7937   0.135E-02
  15 F= -.44021354E+03 E0= -.44021213E+03  d E =-.115476E-01  mag=    -2.7891
       N       E                     dE             d eps       ncg     rms          rms(c)
DAV:   1    -0.427759655864E+03   -0.21401E-02   -0.75635E-01 14288   0.263E+00    0.302E-01
RMM:   2    -0.427766644412E+03   -0.69885E-02   -0.61707E-02 17695   0.700E-01    0.505E-01
RMM:   3    -0.427766495743E+03    0.14867E-03   -0.73076E-03 16353   0.252E-01    0.462E-01
RMM:   4    -0.427765711654E+03    0.78409E-03   -0.14241E-03 14893   0.885E-02    0.181E-01
RMM:   5    -0.427765709026E+03    0.26276E-05   -0.15286E-04 11193   0.306E-02    0.155E-01
RMM:   6    -0.427765632169E+03    0.76857E-04   -0.18822E-04 14120   0.318E-02    0.842E-02
RMM:   7    -0.427765600281E+03    0.31888E-04   -0.85766E-05 10986   0.251E-02    0.287E-02
RMM:   8    -0.427765590680E+03    0.96011E-05   -0.13422E-05  7934   0.187E-02
  16 F= -.44021751E+03 E0= -.44021610E+03  d E =-.396801E-02  mag=    -2.7883
       N       E                     dE             d eps       ncg     rms          rms(c)
DAV:   1    -0.427758727628E+03    0.68727E-02   -0.19366E+00 14304   0.421E+00    0.498E-01
RMM:   2    -0.427777386589E+03   -0.18659E-01   -0.15993E-01 17705   0.112E+00    0.902E-01
RMM:   3    -0.427776193328E+03    0.11933E-02   -0.19530E-02 16593   0.411E-01    0.753E-01
RMM:   4    -0.427774110429E+03    0.20829E-02   -0.37391E-03 15879   0.139E-01    0.279E-01
RMM:   5    -0.427774153593E+03   -0.43163E-04   -0.44238E-04 14402   0.458E-02    0.240E-01
RMM:   6    -0.427774010738E+03    0.14285E-03   -0.48160E-04 15609   0.512E-02    0.132E-01
RMM:   7    -0.427774032641E+03   -0.21903E-04   -0.21166E-04 15370   0.351E-02    0.460E-02
RMM:   8    -0.427774019772E+03    0.12869E-04   -0.26865E-05  8346   0.152E-02    0.364E-02
RMM:   9    -0.427774020875E+03   -0.11038E-05   -0.12637E-05  7938   0.165E-02
  17 F= -.44021937E+03 E0= -.44021798E+03  d E =-.583194E-02  mag=    -2.7856
       N       E                     dE             d eps       ncg     rms          rms(c)
DAV:   1    -0.427773181997E+03    0.83778E-03   -0.22959E-02 14768   0.457E-01    0.472E-02
RMM:   2    -0.427773442801E+03   -0.26080E-03   -0.17842E-03 17420   0.118E-01    0.969E-02
RMM:   3    -0.427773444312E+03   -0.15115E-05   -0.18586E-04 11471   0.460E-02    0.656E-02
RMM:   4    -0.427773445847E+03   -0.15347E-05   -0.30783E-05  8244   0.214E-02    0.372E-02
RMM:   5    -0.427773454499E+03   -0.86526E-05   -0.52143E-06  7749   0.947E-03
  18 F= -.44021952E+03 E0= -.44021813E+03  d E =-.598243E-02  mag=    -2.7851
       N       E                     dE             d eps       ncg     rms          rms(c)
DAV:   1    -0.427769340294E+03    0.41056E-02   -0.17180E-01 14360   0.112E+00    0.345E-01
RMM:   2    -0.427770947834E+03   -0.16075E-02   -0.12333E-02 17079   0.329E-01    0.460E-01
RMM:   3    -0.427771157342E+03   -0.20951E-03   -0.42824E-03 14604   0.149E-01    0.514E-01
RMM:   4    -0.427769894926E+03    0.12624E-02   -0.11385E-03 15028   0.758E-02    0.688E-02
RMM:   5    -0.427769912729E+03   -0.17803E-04   -0.17097E-04 12619   0.333E-02    0.495E-02
RMM:   6    -0.427769952135E+03   -0.39406E-04   -0.70507E-05 10090   0.214E-02    0.421E-02
RMM:   7    -0.427769981427E+03   -0.29292E-04   -0.10580E-05  7929   0.154E-02    0.223E-02
RMM:   8    -0.427770005512E+03   -0.24085E-04   -0.53658E-06  7784   0.830E-03    0.166E-02
RMM:   9    -0.427770025945E+03   -0.20433E-04   -0.29355E-06  7683   0.765E-03    0.813E-03
RMM:  10    -0.427770042365E+03   -0.16420E-04   -0.20766E-06  7644   0.550E-03    0.690E-03
RMM:  11    -0.427770053313E+03   -0.10948E-04   -0.12606E-06  7632   0.485E-03    0.510E-03
RMM:  12    -0.427770059724E+03   -0.64110E-05   -0.80555E-07  7390   0.329E-03
  19 F= -.44022062E+03 E0= -.44021922E+03  d E =-.109624E-02  mag=    -2.7829
       N       E                     dE             d eps       ncg     rms          rms(c)
DAV:   1    -0.427769013283E+03    0.10400E-02   -0.10824E-02 14936   0.281E-01    0.830E-02
RMM:   2    -0.427769101278E+03   -0.87995E-04   -0.76744E-04 16909   0.822E-02    0.109E-01
RMM:   3    -0.427769123091E+03   -0.21813E-04   -0.24987E-04 10309   0.384E-02    0.125E-01
RMM:   4    -0.427769048784E+03    0.74307E-04   -0.67148E-05  8234   0.220E-02    0.174E-02
RMM:   5    -0.427769057246E+03   -0.84619E-05   -0.10433E-05  7885   0.120E-02
  20 F= -.44022075E+03 E0= -.44021935E+03  d E =-.122315E-02  mag=    -2.7824
       N       E                     dE             d eps       ncg     rms          rms(c)
DAV:   1    -0.427766752210E+03    0.22966E-02   -0.43223E-02 14456   0.560E-01    0.164E-01
RMM:   2    -0.427767066626E+03   -0.31442E-03   -0.29840E-03 17140   0.163E-01    0.196E-01
RMM:   3    -0.427767207018E+03   -0.14039E-03   -0.97779E-04 13025   0.737E-02    0.263E-01
RMM:   4    -0.427766874413E+03    0.33260E-03   -0.29406E-04 10751   0.409E-02    0.363E-02
RMM:   5    -0.427766879685E+03   -0.52723E-05   -0.41213E-05  8470   0.227E-02
  21 F= -.44022083E+03 E0= -.44021943E+03  d E =-.130514E-02  mag=    -2.7816
       N       E                     dE             d eps       ncg     rms          rms(c)
DAV:   1    -0.427767397852E+03   -0.52344E-03   -0.74825E-02 14240   0.833E-01    0.125E-01
RMM:   2    -0.427768547989E+03   -0.11501E-02   -0.66518E-03 17805   0.223E-01    0.347E-01
RMM:   3    -0.427768002071E+03    0.54592E-03   -0.99568E-04 14869   0.948E-02    0.965E-02
RMM:   4    -0.427768005951E+03   -0.38794E-05   -0.12336E-04 10884   0.357E-02    0.580E-02
RMM:   5    -0.427768003252E+03    0.26988E-05   -0.36352E-05  8478   0.191E-02
  22 F= -.44022120E+03 E0= -.44021979E+03  d E =-.369680E-03  mag=    -2.7822
       N       E                     dE             d eps       ncg     rms          rms(c)
DAV:   1    -0.427768299307E+03   -0.29336E-03   -0.48310E-02 14392   0.672E-01    0.951E-02
RMM:   2    -0.427768873588E+03   -0.57428E-03   -0.41848E-03 17887   0.178E-01    0.205E-01
RMM:   3    -0.427768709041E+03    0.16455E-03   -0.54780E-04 13840   0.721E-02    0.954E-02
RMM:   4    -0.427768695408E+03    0.13633E-04   -0.88480E-05  9920   0.309E-02    0.474E-02
RMM:   5    -0.427768697806E+03   -0.23973E-05   -0.25380E-05  8208   0.196E-02
  23 F= -.44022129E+03 E0= -.44021987E+03  d E =-.456525E-03  mag=    -2.7832
       N       E                     dE             d eps       ncg     rms          rms(c)
DAV:   1    -0.427771090944E+03   -0.23955E-02   -0.91851E-02 14352   0.880E-01    0.173E-01
RMM:   2    -0.427773013510E+03   -0.19226E-02   -0.81008E-03 17608   0.242E-01    0.527E-01
RMM:   3    -0.427771670714E+03    0.13428E-02   -0.18008E-03 14633   0.115E-01    0.978E-02
RMM:   4    -0.427771662683E+03    0.80306E-05   -0.19118E-04 11555   0.434E-02    0.432E-02
RMM:   5    -0.427771668121E+03   -0.54377E-05   -0.52236E-05  8707   0.195E-02
  24 F= -.44022151E+03 E0= -.44022010E+03  d E =-.223440E-03  mag=    -2.7832
       N       E                     dE             d eps       ncg     rms          rms(c)
DAV:   1    -0.427773102467E+03   -0.14398E-02   -0.30167E-02 14464   0.506E-01    0.917E-02
RMM:   2    -0.427773604978E+03   -0.50251E-03   -0.25806E-03 17691   0.138E-01    0.249E-01
RMM:   3    -0.427773301187E+03    0.30379E-03   -0.48557E-04 12415   0.623E-02    0.639E-02
RMM:   4    -0.427773297518E+03    0.36692E-05   -0.64561E-05  9225   0.281E-02    0.316E-02
RMM:   5    -0.427773299501E+03   -0.19827E-05   -0.20075E-05  8065   0.159E-02
  25 F= -.44022156E+03 E0= -.44022015E+03  d E =-.276416E-03  mag=    -2.7827
       N       E                     dE             d eps       ncg     rms          rms(c)
DAV:   1    -0.427771739801E+03    0.15577E-02   -0.71305E-02 14064   0.720E-01    0.911E-02
RMM:   2    -0.427772137736E+03   -0.39793E-03   -0.42472E-03 17084   0.189E-01    0.920E-02
RMM:   3    -0.427772153728E+03   -0.15992E-04   -0.35196E-04 14467   0.652E-02    0.118E-01
RMM:   4    -0.427772105478E+03    0.48250E-04   -0.90531E-05  9458   0.280E-02    0.610E-02
RMM:   5    -0.427772122354E+03   -0.16877E-04   -0.25786E-05  8228   0.181E-02    0.437E-02
RMM:   6    -0.427772126130E+03   -0.37758E-05   -0.19659E-05  8055   0.178E-02
  26 F= -.44022175E+03 E0= -.44022033E+03  d E =-.189978E-03  mag=    -2.7810
       N       E                     dE             d eps       ncg     rms          rms(c)
DAV:   1    -0.427770152967E+03    0.19694E-02   -0.85124E-02 14080   0.788E-01    0.104E-01
RMM:   2    -0.427770621871E+03   -0.46890E-03   -0.50851E-03 17070   0.208E-01    0.904E-02
RMM:   3    -0.427770603185E+03    0.18686E-04   -0.37616E-04 15549   0.694E-02    0.742E-02
RMM:   4    -0.427770610915E+03   -0.77301E-05   -0.80784E-05  9807   0.265E-02    0.785E-02
RMM:   5    -0.427770634493E+03   -0.23578E-04   -0.83177E-05  8772   0.229E-02    0.770E-02
RMM:   6    -0.427770612479E+03    0.22014E-04   -0.27337E-05  8214   0.181E-02    0.207E-02
RMM:   7    -0.427770622961E+03   -0.10481E-04   -0.65957E-06  7752   0.122E-02    0.109E-02
RMM:   8    -0.427770636922E+03   -0.13962E-04   -0.43775E-06  7678   0.777E-03    0.758E-03
RMM:   9    -0.427770642684E+03   -0.57616E-05   -0.20145E-06  7614   0.731E-03
  27 F= -.44022177E+03 E0= -.44022033E+03  d E =-.202645E-03  mag=    -2.7778
       N       E                     dE             d eps       ncg     rms          rms(c)
DAV:   1    -0.427771309075E+03   -0.67215E-03   -0.19461E-02 14144   0.376E-01    0.472E-02
RMM:   2    -0.427771437355E+03   -0.12828E-03   -0.11369E-03 17039   0.981E-02    0.409E-02
RMM:   3    -0.427771437602E+03   -0.24703E-06   -0.62745E-05 10461   0.320E-02    0.306E-02
RMM:   4    -0.427771448182E+03   -0.10580E-04   -0.18095E-05  7989   0.194E-02    0.382E-02
RMM:   5    -0.427771450894E+03   -0.27113E-05   -0.14505E-05  7819   0.101E-02
  28 F= -.44022186E+03 E0= -.44022043E+03  d E =-.300220E-03  mag=    -2.7777
       N       E                     dE             d eps       ncg     rms          rms(c)
DAV:   1    -0.427771741650E+03   -0.29347E-03   -0.34872E-03 14656   0.159E-01    0.219E-02
RMM:   2    -0.427771773172E+03   -0.31522E-04   -0.22912E-04 16019   0.452E-02    0.361E-02
RMM:   3    -0.427771768054E+03    0.51183E-05   -0.24640E-05  8094   0.196E-02    0.277E-02
RMM:   4    -0.427771768068E+03   -0.13893E-07   -0.54984E-06  7124   0.100E-02    0.158E-02
RMM:   5    -0.427771772425E+03   -0.43570E-05   -0.22493E-06  7138   0.590E-03
  29 F= -.44022188E+03 E0= -.44022046E+03  d E =-.318336E-03  mag=    -2.7778
       N       E                     dE             d eps       ncg     rms          rms(c)
DAV:   1    -0.427771240990E+03    0.52708E-03   -0.46221E-02 14560   0.734E-01    0.836E-02
RMM:   2    -0.427771835658E+03   -0.59467E-03   -0.51081E-03 17949   0.192E-01    0.171E-01
RMM:   3    -0.427771748553E+03    0.87104E-04   -0.54119E-04 14206   0.782E-02    0.967E-02
RMM:   4    -0.427771717240E+03    0.31313E-04   -0.96025E-05 10318   0.327E-02    0.389E-02
RMM:   5    -0.427771714001E+03    0.32396E-05   -0.11532E-05  7939   0.142E-02
  30 F= -.44022196E+03 E0= -.44022052E+03  d E =-.737785E-04  mag=    -2.7775
       N       E                     dE             d eps       ncg     rms          rms(c)
DAV:   1    -0.427771717287E+03   -0.47090E-07   -0.45408E-04 15320   0.750E-02    0.265E-02
RMM:   2    -0.427771725273E+03   -0.79861E-05   -0.67720E-05 11780   0.223E-02    0.324E-02
RMM:   3    -0.427771730944E+03   -0.56704E-05   -0.29865E-05  7921   0.193E-02    0.425E-02
RMM:   4    -0.427771723641E+03    0.73024E-05   -0.10260E-05  7102   0.891E-03    0.103E-02
RMM:   5    -0.427771724533E+03   -0.89187E-06   -0.14245E-06  6755   0.703E-03
  31 F= -.44022195E+03 E0= -.44022051E+03  d E =-.715474E-04  mag=    -2.7774
       N       E                     dE             d eps       ncg     rms          rms(c)
DAV:   1    -0.427771717671E+03    0.59702E-05   -0.18042E-04 13880   0.467E-02    0.602E-03
RMM:   2    -0.427771721847E+03   -0.41761E-05   -0.19238E-05  8497   0.142E-02    0.146E-02
RMM:   3    -0.427771721347E+03    0.50007E-06   -0.40854E-06  6806   0.113E-02    0.355E-03
RMM:   4    -0.427771722606E+03   -0.12589E-05   -0.11916E-06  6436   0.452E-03    0.573E-03
RMM:   5    -0.427771723402E+03   -0.79613E-06   -0.44218E-07  6359   0.389E-03
  32 F= -.44022196E+03 E0= -.44022052E+03  d E =-.788314E-04  mag=    -2.7773
