<?xml version="1.0" encoding="ISO-8859-1"?>
<modeling>
    <generator>
        <i name="program" type="string">vasp</i>
        <i name="version" type="string">5.4.4.18Apr17-6-g9f103f2a35</i>
        <i name="subversion" type="string">(build Oct 14 2020 13:51:23) complex parallel</i>
        <i name="platform" type="string">LinuxIFC</i>
        <i name="date" type="string">2020 10 24</i>
        <i name="time" type="string">10:42:41</i>
    </generator>
    <incar>
        <i type="int" name="ISTART">0</i>
        <i type="string" name="PREC">normal</i>
        <i type="string" name="ALGO">Fast</i>
        <i type="int" name="NSIM">4</i>
        <i type="int" name="ISPIN">2</i>
        <i type="int" name="ICHARG">2</i>
        <i type="int" name="NELM">100</i>
        <i type="int" name="NELMIN">5</i>
        <i type="int" name="IBRION">2</i>
        <i name="EDIFF">0.00001000</i>
        <i name="EDIFFG">-0.01000000</i>
        <i type="int" name="NSW">300</i>
        <i type="int" name="ISIF">3</i>
        <i name="ENCUT">600.00000000</i>
        <i name="POTIM">0.05000000</i>
        <i type="int" name="NEDOS">301</i>
        <i type="int" name="ISMEAR">0</i>
        <i name="SIGMA">0.02000000</i>
        <i type="logical" name="LWAVE">F</i>
        <i type="logical" name="LCHARG">F</i>
        <v type="int" name="KPOINT_BSE">-1 0 0 0</v>
        <i type="int" name="NELM">100</i>
    </incar>
    <structure name="primitive_cell">
        <crystal>
            <varray name="basis">
                <v>8.98635323 0.00000000 0.00000000</v>
                <v>-4.49317661 7.78242983 0.00000000</v>
                <v>-0.00000000 0.00000000 21.81413279</v>
            </varray>
            <i name="volume">1525.58584821</i>
            <varray name="rec_basis">
                <v>0.11127985 0.06424729 0.00000000</v>
                <v>0.00000000 0.12849457 -0.00000000</v>
                <v>0.00000000 0.00000000 0.04584184</v>
            </varray>
        </crystal>
        <varray name="positions">
            <v>-0.00000002 0.00000003 0.49999884</v>
            <v>-0.11111024 0.11111115 0.43603186</v>
            <v>0.22222170 0.11111072 0.43603192</v>
            <v>-0.11111061 -0.22222236 0.43603190</v>
            <v>-0.22222157 -0.11111068 -0.43603113</v>
            <v>0.11111107 -0.11111077 -0.43603123</v>
            <v>0.11111143 0.22222283 -0.43603125</v>
            <v>-0.00000066 -0.00000020 0.38265492</v>
            <v>-0.00000035 -0.00000021 -0.38265440</v>
            <v>-0.33333325 0.00000009 0.49999884</v>
            <v>0.33333331 -0.00000002 0.49999885</v>
            <v>0.33333324 0.33333327 0.49999884</v>
            <v>-0.33333327 -0.33333329 0.49999884</v>
            <v>-0.00000008 0.33333329 0.49999884</v>
            <v>-0.00000001 -0.33333337 0.49999885</v>
            <v>0.22222195 0.44444392 0.43603199</v>
            <v>0.22222163 -0.22222305 0.43603191</v>
            <v>-0.44444495 -0.22222316 0.43603184</v>
            <v>0.44444378 0.22222256 -0.43603113</v>
            <v>-0.22222134 0.22222306 -0.43603106</v>
            <v>-0.22222161 -0.44444362 -0.43603114</v>
            <v>-0.33333316 0.00000047 0.38265529</v>
            <v>-0.33333293 -0.33333290 0.38265515</v>
            <v>0.33333408 0.00000047 0.38265507</v>
            <v>-0.00000056 -0.33333344 0.38265492</v>
            <v>-0.00000095 0.33333299 0.38265488</v>
            <v>0.33333390 0.33333352 0.38265490</v>
            <v>-0.33333372 -0.00000006 -0.38265483</v>
            <v>-0.33333363 -0.33333353 -0.38265468</v>
            <v>0.33333412 0.00000017 -0.38265459</v>
            <v>-0.00000070 0.33333276 -0.38265440</v>
            <v>0.33333383 0.33333323 -0.38265446</v>
            <v>-0.00000025 -0.33333367 -0.38265439</v>
            <v>-0.44444484 0.11111065 0.43603176</v>
            <v>-0.11111032 0.44444460 0.43603188</v>
            <v>-0.44444493 0.44444414 0.43603186</v>
            <v>0.44444377 -0.11111138 -0.43603113</v>
            <v>0.11111134 -0.44444412 -0.43603124</v>
            <v>0.44444383 -0.44444447 -0.43603121</v>
            <v>-0.33333325 0.33333331 0.49999885</v>
            <v>0.33333327 -0.33333336 0.49999884</v>
            <v>-0.33369000 -0.33404000 0.30000000</v>
            <v>-0.33333314 0.33333328 0.38265526</v>
            <v>0.33333395 -0.33333254 0.38265494</v>
            <v>-0.33333375 0.33333262 -0.38265479</v>
            <v>0.33333388 -0.33333296 -0.38265450</v>
        </varray>
    </structure>
    <varray name="primitive_index">
        <v type="int">1</v>
        <v type="int">25</v>
        <v type="int">19</v>
        <v type="int">27</v>
        <v type="int">18</v>
        <v type="int">12</v>
        <v type="int">10</v>
        <v type="int">37</v>
        <v type="int">28</v>
        <v type="int">7</v>
        <v type="int">4</v>
        <v type="int">5</v>
        <v type="int">9</v>
        <v type="int">2</v>
        <v type="int">3</v>
        <v type="int">20</v>
        <v type="int">21</v>
        <v type="int">24</v>
        <v type="int">13</v>
        <v type="int">16</v>
        <v type="int">17</v>
        <v type="int">43</v>
        <v type="int">45</v>
        <v type="int">40</v>
        <v type="int">39</v>
        <v type="int">38</v>
        <v type="int">41</v>
        <v type="int">34</v>
        <v type="int">36</v>
        <v type="int">31</v>
        <v type="int">29</v>
        <v type="int">32</v>
        <v type="int">30</v>
        <v type="int">22</v>
        <v type="int">26</v>
        <v type="int">23</v>
        <v type="int">15</v>
        <v type="int">11</v>
        <v type="int">14</v>
        <v type="int">8</v>
        <v type="int">6</v>
        <v type="int">46</v>
        <v type="int">44</v>
        <v type="int">42</v>
        <v type="int">35</v>
        <v type="int">33</v>
    </varray>
    <kpoints>
        <generation param="Gamma">
            <v type="int" name="divisions">5 5 1</v>
            <v name="usershift">0.00000000 0.00000000 0.00000000</v>
            <v name="genvec1">0.20000000 0.00000000 0.00000000</v>
            <v name="genvec2">0.00000000 0.20000000 0.00000000</v>
            <v name="genvec3">0.00000000 0.00000000 1.00000000</v>
            <v name="shift">0.00000000 0.00000000 0.00000000</v>
        </generation>
        <varray name="kpointlist">
            <v>0.00000000 0.00000000 0.00000000</v>
            <v>0.20000000 0.00000000 -0.00000000</v>
            <v>0.40000000 0.00000000 -0.00000000</v>
            <v>0.00000000 0.20000000 0.00000000</v>
            <v>0.20000000 0.20000000 0.00000000</v>
            <v>0.40000000 0.20000000 -0.00000000</v>
            <v>-0.40000000 0.20000000 0.00000000</v>
            <v>-0.20000000 0.20000000 0.00000000</v>
            <v>0.00000000 0.40000000 0.00000000</v>
            <v>0.20000000 0.40000000 -0.00000000</v>
            <v>0.40000000 0.40000000 0.00000000</v>
            <v>-0.40000000 0.40000000 0.00000000</v>
            <v>-0.20000000 0.40000000 0.00000000</v>
        </varray>
        <varray name="weights">
            <v>0.04000000</v>
            <v>0.08000000</v>
            <v>0.08000000</v>
            <v>0.08000000</v>
            <v>0.08000000</v>
            <v>0.08000000</v>
            <v>0.08000000</v>
            <v>0.08000000</v>
            <v>0.08000000</v>
            <v>0.08000000</v>
            <v>0.08000000</v>
            <v>0.08000000</v>
            <v>0.08000000</v>
        </varray>
    </kpoints>
    <parameters>
        <separator name="general">
            <i type="string" name="SYSTEM">unknown system</i>
            <i type="logical" name="LCOMPAT">F</i>
        </separator>
        <separator name="electronic">
            <i type="string" name="PREC">normal</i>
            <i name="ENMAX">600.00000000</i>
            <i name="ENAUG">627.11200000</i>
            <i name="EDIFF">0.00001000</i>
            <i type="int" name="IALGO">68</i>
            <i type="int" name="IWAVPR">11</i>
            <i type="int" name="NBANDS">240</i>
            <i name="NELECT">360.00000000</i>
            <i type="int" name="TURBO">0</i>
            <i type="int" name="IRESTART">0</i>
            <i type="int" name="NREBOOT">0</i>
            <i type="int" name="NMIN">0</i>
            <i name="EREF">0.00000000</i>
            <separator name="electronic smearing">
                <i type="int" name="ISMEAR">0</i>
                <i name="SIGMA">0.02000000</i>
                <i name="KSPACING">0.50000000</i>
                <i type="logical" name="KGAMMA">T</i>
            </separator>
            <separator name="electronic projectors">
                <i type="logical" name="LREAL">F</i>
                <v name="ROPT">0.00000000 0.00000000 0.00000000 0.00000000 0.00000000</v>
                <i type="int" name="LMAXPAW">-100</i>
                <i type="int" name="LMAXMIX">2</i>
                <i type="logical" name="NLSPLINE">F</i>
            </separator>
            <separator name="electronic startup">
                <i type="int" name="ISTART">0</i>
                <i type="int" name="ICHARG">2</i>
                <i type="int" name="INIWAV">1</i>
            </separator>
            <separator name="electronic spin">
                <i type="int" name="ISPIN">2</i>
                <i type="logical" name="LNONCOLLINEAR">F</i>
                <v name="MAGMOM">1.00000000 1.00000000 1.00000000 1.00000000 1.00000000 1.00000000 1.00000000 1.00000000
                    1.00000000 1.00000000 1.00000000 1.00000000 1.00000000 1.00000000 1.00000000 1.00000000 1.00000000
                    1.00000000 1.00000000 1.00000000
                    1.00000000 1.00000000 1.00000000 1.00000000 1.00000000 1.00000000 1.00000000 1.00000000 1.00000000
                    1.00000000 1.00000000 1.00000000 1.00000000 1.00000000 1.00000000 1.00000000 1.00000000 1.00000000
                    1.00000000 1.00000000
                    1.00000000 1.00000000 1.00000000 1.00000000 1.00000000 1.00000000
                </v>
                <i name="NUPDOWN">-1.00000000</i>
                <i type="logical" name="LSORBIT">F</i>
                <v name="SAXIS">0.00000000 0.00000000 1.00000000</v>
                <i type="logical" name="LSPIRAL">F</i>
                <v name="QSPIRAL">0.00000000 0.00000000 0.00000000</v>
                <i type="logical" name="LZEROZ">F</i>
            </separator>
            <separator name="electronic exchange-correlation">
                <i type="logical" name="LASPH">F</i>
                <i type="logical" name="LMETAGGA">F</i>
            </separator>
            <separator name="electronic convergence">
                <i type="int" name="NELM">100</i>
                <i type="int" name="NELMDL">-5</i>
                <i type="int" name="NELMIN">5</i>
                <i name="ENINI">600.00000000</i>
                <separator name="electronic convergence detail">
                    <i type="logical" name="LDIAG">T</i>
                    <i type="logical" name="LSUBROT">F</i>
                    <i name="WEIMIN">0.00100000</i>
                    <i name="EBREAK">0.00000001</i>
                    <i name="DEPER">0.30000000</i>
                    <i type="int" name="NRMM">4</i>
                    <i name="TIME">0.40000000</i>
                </separator>
            </separator>
            <separator name="electronic mixer">
                <i name="AMIX">0.40000000</i>
                <i name="BMIX">1.00000000</i>
                <i name="AMIN">0.10000000</i>
                <i name="AMIX_MAG">1.60000000</i>
                <i name="BMIX_MAG">1.00000000</i>
                <separator name="electronic mixer details">
                    <i type="int" name="IMIX">4</i>
                    <i type="logical" name="MIXFIRST">F</i>
                    <i type="int" name="MAXMIX">-45</i>
                    <i name="WC">100.00000000</i>
                    <i type="int" name="INIMIX">1</i>
                    <i type="int" name="MIXPRE">1</i>
                    <i type="int" name="MREMOVE">5</i>
                </separator>
            </separator>
            <separator name="electronic dipolcorrection">
                <i type="logical" name="LDIPOL">F</i>
                <i type="logical" name="LMONO">F</i>
                <i type="int" name="IDIPOL">0</i>
                <i name="EPSILON">1.00000000</i>
                <v name="DIPOL">-100.00000000 -100.00000000 -100.00000000</v>
                <i name="EFIELD">0.00000000</i>
            </separator>
        </separator>
        <separator name="grids">
            <i type="int" name="NGX">54</i>
            <i type="int" name="NGY">54</i>
            <i type="int" name="NGZ">140</i>
            <i type="int" name="NGXF">108</i>
            <i type="int" name="NGYF">108</i>
            <i type="int" name="NGZF">280</i>
            <i type="logical" name="ADDGRID">F</i>
        </separator>
        <separator name="ionic">
            <i type="int" name="NSW">300</i>
            <i type="int" name="IBRION">2</i>
            <i type="int" name="MDALGO">0</i>
            <i type="int" name="ISIF">3</i>
            <i name="PSTRESS">0.00000000</i>
            <i name="EDIFFG">-0.01000000</i>
            <i type="int" name="NFREE">1</i>
            <i name="POTIM">0.05000000</i>
            <i name="SMASS">-3.00000000</i>
            <i name="SCALEE">1.00000000</i>
        </separator>
        <separator name="ionic md">
            <i name="TEBEG">0.00010000</i>
            <i name="TEEND">0.00010000</i>
            <i type="int" name="NBLOCK">1</i>
            <i type="int" name="KBLOCK">300</i>
            <i type="int" name="NPACO">256</i>
            <i name="APACO">16.00000000</i>
        </separator>
        <separator name="symmetry">
            <i type="int" name="ISYM">2</i>
            <i name="SYMPREC">0.00001000</i>
        </separator>
        <separator name="dos">
            <i type="int" name="LORBIT">0</i>
            <v name="RWIGS">-1.00000000 -1.00000000 -1.00000000 -1.00000000 -1.00000000</v>
            <i type="int" name="NEDOS">301</i>
            <i name="EMIN">10.00000000</i>
            <i name="EMAX">-10.00000000</i>
            <i name="EFERMI">0.00000000</i>
        </separator>
        <separator name="writing">
            <i type="int" name="NWRITE">2</i>
            <i type="logical" name="LWAVE">F</i>
            <i type="logical" name="LDOWNSAMPLE">F</i>
            <i type="logical" name="LCHARG">F</i>
            <i type="logical" name="LPARD">F</i>
            <i type="logical" name="LVTOT">F</i>
            <i type="logical" name="LVHAR">F</i>
            <i type="logical" name="LELF">F</i>
            <i type="logical" name="LOPTICS">F</i>
            <v name="STM">0.00000000 0.00000000 0.00000000 0.00000000 0.00000000 0.00000000 0.00000000</v>
        </separator>
        <separator name="performance">
            <i type="int" name="NPAR">4</i>
            <i type="int" name="NSIM">4</i>
            <i type="int" name="NBLK">-1</i>
            <i type="logical" name="LPLANE">T</i>
            <i type="logical" name="LSCALAPACK">T</i>
            <i type="logical" name="LSCAAWARE">F</i>
            <i type="logical" name="LSCALU">F</i>
            <i type="logical" name="LASYNC">F</i>
            <i type="logical" name="LORBITALREAL">F</i>
        </separator>
        <separator name="miscellaneous">
            <i type="int" name="IDIOT">3</i>
            <i type="int" name="ISPECIAL">0</i>
            <i type="logical" name="LMUSIC">F</i>
            <v name="POMASS">14.00100000 92.00000000 16.00000000 16.00000000 58.93300000</v>
            <v name="DARWINR">0.00000000 0.00000000 0.00000000 0.00000000 0.00000000</v>
            <v name="DARWINV">1.00000000 1.00000000 1.00000000 1.00000000 1.00000000</v>
            <i type="logical" name="LCORR">T</i>
        </separator>
        <i type="logical" name="GGA_COMPAT">T</i>
        <i type="logical" name="LBERRY">F</i>
        <i type="int" name="ICORELEVEL">0</i>
        <i type="logical" name="LDAU">F</i>
        <i type="int" name="I_CONSTRAINED_M">0</i>
        <separator name="electronic exchange-correlation">
            <i type="string" name="GGA">--</i>
            <i type="int" name="VOSKOWN">0</i>
            <i type="logical" name="LHFCALC">F</i>
            <i type="string" name="PRECFOCK"></i>
            <i type="logical" name="LSYMGRAD">F</i>
            <i type="logical" name="LHFONE">F</i>
            <i type="logical" name="LRHFCALC">F</i>
            <i type="logical" name="LTHOMAS">F</i>
            <i type="logical" name="LMODELHF">F</i>
            <i name="ENCUT4O">-1.00000000</i>
            <i type="int" name="EXXOEP">0</i>
            <i type="int" name="FOURORBIT">0</i>
            <i name="AEXX">0.00000000</i>
            <i name="HFALPHA">0.00000000</i>
            <i name="MCALPHA">0.00000000</i>
            <i name="ALDAX">1.00000000</i>
            <i name="AGGAX">1.00000000</i>
            <i name="ALDAC">1.00000000</i>
            <i name="AGGAC">1.00000000</i>
            <i type="int" name="NKREDX">1</i>
            <i type="int" name="NKREDY">1</i>
            <i type="int" name="NKREDZ">1</i>
            <i type="logical" name="SHIFTRED">F</i>
            <i type="logical" name="ODDONLY">F</i>
            <i type="logical" name="EVENONLY">F</i>
            <i type="int" name="LMAXFOCK">0</i>
            <i type="int" name="NMAXFOCKAE">0</i>
            <i type="logical" name="LFOCKAEDFT">F</i>
            <i name="HFSCREEN">0.00000000</i>
            <i name="HFSCREENC">0.00000000</i>
            <i type="int" name="NBANDSGWLOW">0</i>
        </separator>
        <separator name="vdW DFT">
            <i type="logical" name="LUSE_VDW">F</i>
            <i name="Zab_VDW">-0.84910000</i>
            <i name="PARAM1">0.12340000</i>
            <i name="PARAM2">1.00000000</i>
            <i name="PARAM3">0.00000000</i>
        </separator>
        <separator name="model GW">
            <i type="int" name="MODEL_GW">0</i>
            <i name="MODEL_EPS0">19.89894585</i>
            <i name="MODEL_ALPHA">1.00000000</i>
        </separator>
        <separator name="linear response parameters">
            <i type="logical" name="LEPSILON">F</i>
            <i type="logical" name="LRPA">F</i>
            <i type="logical" name="LNABLA">F</i>
            <i type="logical" name="LVEL">F</i>
            <i type="int" name="KINTER">0</i>
            <i name="CSHIFT">0.10000000</i>
            <i name="OMEGAMAX">-1.00000000</i>
            <i name="DEG_THRESHOLD">0.00200000</i>
            <i name="RTIME">-0.10000000</i>
            <i name="WPLASMAI">0.00000000</i>
            <v name="DFIELD">0.00000000 0.00000000 0.00000000</v>
            <v name="WPLASMA">0.00000000 0.00000000 0.00000000 0.00000000 0.00000000 0.00000000 0.00000000 0.00000000
                0.00000000
            </v>
        </separator>
        <separator name="orbital magnetization">
            <i type="logical" name="NUCIND">F</i>
            <v name="MAGPOS">0.00000000 0.00000000 0.00000000</v>
            <i type="logical" name="LNICSALL">T</i>
            <i type="logical" name="ORBITALMAG">F</i>
            <i type="logical" name="LMAGBLOCH">F</i>
            <i type="logical" name="LCHIMAG">F</i>
            <i type="logical" name="LGAUGE">T</i>
            <i type="int" name="MAGATOM">0</i>
            <v name="MAGDIPOL">0.00000000 0.00000000 0.00000000</v>
            <v name="AVECCONST">0.00000000 0.00000000 0.00000000</v>
        </separator>
        <separator name="response functions">
            <i type="logical" name="LADDER">F</i>
            <i type="logical" name="LRPAFORCE">F</i>
            <i type="logical" name="LFXC">F</i>
            <i type="logical" name="LHARTREE">T</i>
            <i type="int" name="IBSE">0</i>
            <v type="int" name="KPOINT">-1 0 0 0</v>
            <i type="logical" name="LTCTE">F</i>
            <i type="logical" name="LTETE">F</i>
            <i type="logical" name="LTRIPLET">F</i>
            <i type="logical" name="LFXCEPS">F</i>
            <i type="logical" name="LFXHEG">F</i>
            <i type="int" name="NATURALO">2</i>
            <i type="logical" name="L2ORDER">F</i>
            <i type="logical" name="LMP2LT">F</i>
            <i type="logical" name="LUSEW">F</i>
            <i name="ENCUTGW">-2.00000000</i>
            <i name="ENCUTGWSOFT">-2.00000000</i>
            <i name="ENCUTLF">-1.00000000</i>
            <i type="int" name="LMAXMP2">-1</i>
            <i name="SCISSOR">0.00000000</i>
            <i type="int" name="NOMEGA">0</i>
            <i type="int" name="NOMEGAR">0</i>
            <i type="int" name="NBANDSGW">-1</i>
            <i type="int" name="NBANDSO">-1</i>
            <i type="int" name="NBANDSV">-1</i>
            <i type="int" name="NELM">100</i>
            <i type="int" name="NELMHF">1</i>
            <i type="int" name="DIM">3</i>
            <i type="int" name="ANTIRES">0</i>
            <i name="OMEGAMAX">-30.00000000</i>
            <i name="OMEGAMIN">-30.00000000</i>
            <i name="OMEGATL">-200.00000000</i>
            <i type="int" name="OMEGAGRID">140</i>
            <i name="CSHIFT">-0.10000000</i>
            <i type="logical" name="SELFENERGY">F</i>
            <i type="logical" name="LSPECTRAL">F</i>
            <i type="logical" name="LSPECTRALGW">F</i>
            <i type="logical" name="LSINGLES">F</i>
            <i type="logical" name="LFERMIGW">F</i>
            <i type="logical" name="ODDONLYGW">F</i>
            <i type="logical" name="EVENONLYGW">F</i>
            <i type="int" name="NKREDLFX">1</i>
            <i type="int" name="NKREDLFY">1</i>
            <i type="int" name="NKREDLFZ">1</i>
            <i type="int" name="MAXMEM">2800</i>
            <i type="int" name="TELESCOPE">0</i>
            <i type="int" name="TAUPAR">1</i>
            <i type="int" name="OMEGAPAR">-1</i>
            <i name="LAMBDA">1.00000000</i>
        </separator>
        <separator name="External order field">
            <i name="OFIELD_KAPPA">0.00000000</i>
            <v name="OFIELD_K">0.00000000 0.00000000 0.00000000</v>
            <i name="OFIELD_Q6_NEAR">0.00000000</i>
            <i name="OFIELD_Q6_FAR">0.00000000</i>
            <i name="OFIELD_A">0.00000000</i>
        </separator>
    </parameters>
    <atominfo>
        <atoms>46</atoms>
        <types>5</types>
        <array name="atoms">
            <dimension dim="1">ion</dimension>
            <field type="string">element</field>
            <field type="int">atomtype</field>
            <set>
                <rc>
                    <c>N</c>
                    <c>1</c>
                </rc>
                <rc>
                    <c>N</c>
                    <c>1</c>
                </rc>
                <rc>
                    <c>N</c>
                    <c>1</c>
                </rc>
                <rc>
                    <c>N</c>
                    <c>1</c>
                </rc>
                <rc>
                    <c>N</c>
                    <c>1</c>
                </rc>
                <rc>
                    <c>N</c>
                    <c>1</c>
                </rc>
                <rc>
                    <c>N</c>
                    <c>1</c>
                </rc>
                <rc>
                    <c>N</c>
                    <c>1</c>
                </rc>
                <rc>
                    <c>N</c>
                    <c>1</c>
                </rc>
                <rc>
                    <c>Nb</c>
                    <c>2</c>
                </rc>
                <rc>
                    <c>Nb</c>
                    <c>2</c>
                </rc>
                <rc>
                    <c>Nb</c>
                    <c>2</c>
                </rc>
                <rc>
                    <c>Nb</c>
                    <c>2</c>
                </rc>
                <rc>
                    <c>Nb</c>
                    <c>2</c>
                </rc>
                <rc>
                    <c>Nb</c>
                    <c>2</c>
                </rc>
                <rc>
                    <c>Nb</c>
                    <c>2</c>
                </rc>
                <rc>
                    <c>Nb</c>
                    <c>2</c>
                </rc>
                <rc>
                    <c>Nb</c>
                    <c>2</c>
                </rc>
                <rc>
                    <c>Nb</c>
                    <c>2</c>
                </rc>
                <rc>
                    <c>Nb</c>
                    <c>2</c>
                </rc>
                <rc>
                    <c>Nb</c>
                    <c>2</c>
                </rc>
                <rc>
                    <c>Nb</c>
                    <c>2</c>
                </rc>
                <rc>
                    <c>Nb</c>
                    <c>2</c>
                </rc>
                <rc>
                    <c>Nb</c>
                    <c>2</c>
                </rc>
                <rc>
                    <c>Nb</c>
                    <c>2</c>
                </rc>
                <rc>
                    <c>Nb</c>
                    <c>2</c>
                </rc>
                <rc>
                    <c>Nb</c>
                    <c>2</c>
                </rc>
                <rc>
                    <c>O</c>
                    <c>3</c>
                </rc>
                <rc>
                    <c>O</c>
                    <c>3</c>
                </rc>
                <rc>
                    <c>O</c>
                    <c>3</c>
                </rc>
                <rc>
                    <c>O</c>
                    <c>3</c>
                </rc>
                <rc>
                    <c>O</c>
                    <c>3</c>
                </rc>
                <rc>
                    <c>O</c>
                    <c>3</c>
                </rc>
                <rc>
                    <c>O</c>
                    <c>3</c>
                </rc>
                <rc>
                    <c>O</c>
                    <c>3</c>
                </rc>
                <rc>
                    <c>O</c>
                    <c>3</c>
                </rc>
                <rc>
                    <c>O</c>
                    <c>3</c>
                </rc>
                <rc>
                    <c>O</c>
                    <c>3</c>
                </rc>
                <rc>
                    <c>O</c>
                    <c>3</c>
                </rc>
                <rc>
                    <c>O</c>
                    <c>3</c>
                </rc>
                <rc>
                    <c>O</c>
                    <c>3</c>
                </rc>
                <rc>
                    <c>O</c>
                    <c>3</c>
                </rc>
                <rc>
                    <c>O</c>
                    <c>3</c>
                </rc>
                <rc>
                    <c>O</c>
                    <c>3</c>
                </rc>
                <rc>
                    <c>O</c>
                    <c>4</c>
                </rc>
                <rc>
                    <c>Co</c>
                    <c>5</c>
                </rc>
            </set>
        </array>
        <array name="atomtypes">
            <dimension dim="1">type</dimension>
            <field type="int">atomspertype</field>
            <field type="string">element</field>
            <field>mass</field>
            <field>valence</field>
            <field type="string">pseudopotential</field>
            <set>
                <rc>
                    <c>9</c>
                    <c>N</c>
                    <c>14.00100000</c>
                    <c>5.00000000</c>
                    <c>PAW_PBE N 08Apr2002</c>
                </rc>
                <rc>
                    <c>18</c>
                    <c>Nb</c>
                    <c>92.00000000</c>
                    <c>11.00000000</c>
                    <c>PAW_PBE Nb_pv 08Apr2002</c>
                </rc>
                <rc>
                    <c>17</c>
                    <c>O</c>
                    <c>16.00000000</c>
                    <c>6.00000000</c>
                    <c>PAW_PBE O 08Apr2002</c>
                </rc>
                <rc>
                    <c>1</c>
                    <c>O</c>
                    <c>16.00000000</c>
                    <c>6.00000000</c>
                    <c>PAW_PBE O 08Apr2002</c>
                </rc>
                <rc>
                    <c>1</c>
                    <c>Co</c>
                    <c>58.93300000</c>
                    <c>9.00000000</c>
                    <c>PAW_PBE Co 02Aug2007</c>
                </rc>
            </set>
        </array>
    </atominfo>
    <structure name="initialpos">
        <crystal>
            <varray name="basis">
                <v>8.98635323 0.00000000 0.00000000</v>
                <v>-4.49317661 7.78242983 0.00000000</v>
                <v>-0.00000000 0.00000000 21.81413279</v>
            </varray>
            <i name="volume">1525.58584821</i>
            <varray name="rec_basis">
                <v>0.11127985 0.06424729 0.00000000</v>
                <v>0.00000000 0.12849457 -0.00000000</v>
                <v>0.00000000 0.00000000 0.04584184</v>
            </varray>
        </crystal>
        <varray name="positions">
            <v>0.99999998 0.00000003 0.49999884</v>
            <v>0.99999992 0.33333329 0.49999884</v>
            <v>0.99999999 0.66666663 0.49999885</v>
            <v>0.33333331 0.99999998 0.49999885</v>
            <v>0.33333324 0.33333327 0.49999884</v>
            <v>0.33333327 0.66666664 0.49999884</v>
            <v>0.66666675 0.00000009 0.49999884</v>
            <v>0.66666675 0.33333331 0.49999885</v>
            <v>0.66666673 0.66666671 0.49999884</v>
            <v>0.11111143 0.22222283 0.56396875</v>
            <v>0.11111134 0.55555588 0.56396876</v>
            <v>0.11111107 0.88888923 0.56396877</v>
            <v>0.44444378 0.22222256 0.56396887</v>
            <v>0.44444383 0.55555553 0.56396879</v>
            <v>0.44444377 0.88888862 0.56396887</v>
            <v>0.77777866 0.22222306 0.56396894</v>
            <v>0.77777839 0.55555638 0.56396886</v>
            <v>0.77777843 0.88888932 0.56396887</v>
            <v>0.22222170 0.11111072 0.43603192</v>
            <v>0.22222195 0.44444392 0.43603199</v>
            <v>0.22222163 0.77777695 0.43603191</v>
            <v>0.55555516 0.11111065 0.43603176</v>
            <v>0.55555507 0.44444414 0.43603186</v>
            <v>0.55555505 0.77777684 0.43603184</v>
            <v>0.88888976 0.11111115 0.43603186</v>
            <v>0.88888968 0.44444460 0.43603188</v>
            <v>0.88888939 0.77777764 0.43603190</v>
            <v>0.99999965 0.99999979 0.61734560</v>
            <v>0.99999930 0.33333276 0.61734560</v>
            <v>0.99999975 0.66666633 0.61734561</v>
            <v>0.33333412 0.00000017 0.61734541</v>
            <v>0.33333383 0.33333323 0.61734554</v>
            <v>0.33333388 0.66666704 0.61734550</v>
            <v>0.66666628 0.99999994 0.61734517</v>
            <v>0.66666625 0.33333262 0.61734521</v>
            <v>0.66666637 0.66666647 0.61734532</v>
            <v>0.99999934 0.99999980 0.38265492</v>
            <v>0.99999905 0.33333299 0.38265488</v>
            <v>0.99999944 0.66666656 0.38265492</v>
            <v>0.33333408 0.00000047 0.38265507</v>
            <v>0.33333390 0.33333352 0.38265490</v>
            <v>0.33333395 0.66666746 0.38265494</v>
            <v>0.66666684 0.00000047 0.38265529</v>
            <v>0.66666686 0.33333328 0.38265526</v>
            <v>0.66666707 0.66666710 0.38265515</v>
            <v>0.66631000 0.66596000 0.30000000</v>
        </varray>
    </structure>
    <calculation>
        <scstep>
            <time name="dav">45.68 45.71</time>
            <time name="total">45.83 45.85</time>
            <energy>
                <i name="alphaZ">1029.28715085</i>
                <i name="ewald">123674.47218821</i>
                <i name="hartreedc">-150019.23986856</i>
                <i name="XCdc">1174.79183136</i>
                <i name="pawpsdc">23840.45553657</i>
                <i name="pawaedc">-23649.26370434</i>
                <i name="eentropy">-0.00412383</i>
                <i name="bandstr">-22.60789230</i>
                <i name="atom">29757.76472481</i>
                <i name="e_fr_energy">5785.65584277</i>
                <i name="e_wo_entrp">5785.65996661</i>
                <i name="e_0_energy">5785.65790469</i>
            </energy>
        </scstep>
        <scstep>
            <time name="dav">43.97 44.00</time>
            <time name="total">43.97 44.00</time>
            <energy>
                <i name="e_fr_energy">681.69759966</i>
                <i name="e_wo_entrp">681.70147327</i>
                <i name="e_0_energy">681.69953647</i>
            </energy>
        </scstep>
        <scstep>
            <time name="dav">62.68 62.71</time>
            <time name="total">62.68 62.71</time>
            <energy>
                <i name="e_fr_energy">-402.64581980</i>
                <i name="e_wo_entrp">-402.64288591</i>
                <i name="e_0_energy">-402.64435286</i>
            </energy>
        </scstep>
        <scstep>
            <time name="dav">60.32 60.35</time>
            <time name="total">60.32 60.35</time>
            <energy>
                <i name="e_fr_energy">-498.97375652</i>
                <i name="e_wo_entrp">-498.97356306</i>
                <i name="e_0_energy">-498.97365979</i>
            </energy>
        </scstep>
        <scstep>
            <time name="dav">61.63 61.66</time>
            <time name="total">62.28 62.30</time>
            <energy>
                <i name="e_fr_energy">-502.76852027</i>
                <i name="e_wo_entrp">-502.76801884</i>
                <i name="e_0_energy">-502.76826955</i>
            </energy>
        </scstep>
        <scstep>
            <time name="diag">4.06 4.06</time>
            <time name="diis">39.37 39.38</time>
            <time name="orth">0.89 0.89</time>
            <time name="total">45.11 45.13</time>
            <energy>
                <i name="e_fr_energy">-602.70465027</i>
                <i name="e_wo_entrp">-602.70092709</i>
                <i name="e_0_energy">-602.70278868</i>
            </energy>
        </scstep>
        <scstep>
            <time name="diag">4.07 4.07</time>
            <time name="diis">37.74 37.75</time>
            <time name="orth">0.89 0.89</time>
            <time name="total">43.49 43.50</time>
            <energy>
                <i name="e_fr_energy">-490.80444330</i>
                <i name="e_wo_entrp">-490.79925271</i>
                <i name="e_0_energy">-490.80184800</i>
            </energy>
        </scstep>
        <scstep>
            <time name="diag">4.06 4.06</time>
            <time name="diis">34.45 34.46</time>
            <time name="orth">0.89 0.89</time>
            <time name="total">40.19 40.21</time>
            <energy>
                <i name="e_fr_energy">-451.93939997</i>
                <i name="e_wo_entrp">-451.93261722</i>
                <i name="e_0_energy">-451.93600860</i>
            </energy>
        </scstep>
        <scstep>
            <time name="diag">4.06 4.06</time>
            <time name="diis">35.62 35.62</time>
            <time name="orth">0.89 0.89</time>
            <time name="total">41.36 41.37</time>
            <energy>
                <i name="e_fr_energy">-411.30096265</i>
                <i name="e_wo_entrp">-411.29877774</i>
                <i name="e_0_energy">-411.29987019</i>
            </energy>
        </scstep>
        <scstep>
            <time name="diag">4.06 4.06</time>
            <time name="diis">30.45 30.46</time>
            <time name="orth">0.89 0.89</time>
            <time name="total">36.19 36.21</time>
            <energy>
                <i name="e_fr_energy">-399.89165021</i>
                <i name="e_wo_entrp">-399.89053410</i>
                <i name="e_0_energy">-399.89109215</i>
            </energy>
        </scstep>
        <scstep>
            <time name="diag">4.11 4.11</time>
            <time name="diis">33.36 33.37</time>
            <time name="orth">0.89 0.89</time>
            <time name="total">39.15 39.16</time>
            <energy>
                <i name="e_fr_energy">-402.68775363</i>
                <i name="e_wo_entrp">-402.68558746</i>
                <i name="e_0_energy">-402.68667055</i>
            </energy>
        </scstep>
        <scstep>
            <time name="diag">4.11 4.11</time>
            <time name="diis">33.57 33.58</time>
            <time name="orth">0.89 0.90</time>
            <time name="total">39.37 39.38</time>
            <energy>
                <i name="e_fr_energy">-400.40486176</i>
                <i name="e_wo_entrp">-400.40108093</i>
                <i name="e_0_energy">-400.40297135</i>
            </energy>
        </scstep>
        <scstep>
            <time name="diag">4.10 4.11</time>
            <time name="diis">32.49 32.50</time>
            <time name="orth">0.89 0.89</time>
            <time name="total">38.28 38.30</time>
            <energy>
                <i name="e_fr_energy">-407.39873157</i>
                <i name="e_wo_entrp">-407.39660869</i>
                <i name="e_0_energy">-407.39767013</i>
            </energy>
        </scstep>
        <scstep>
            <time name="diag">4.11 4.11</time>
            <time name="diis">35.31 35.31</time>
            <time name="orth">0.89 0.89</time>
            <time name="total">41.09 41.11</time>
            <energy>
                <i name="e_fr_energy">-407.34571755</i>
                <i name="e_wo_entrp">-407.34382885</i>
                <i name="e_0_energy">-407.34477320</i>
            </energy>
        </scstep>
        <scstep>
            <time name="diag">4.10 4.10</time>
            <time name="diis">36.15 36.16</time>
            <time name="orth">0.90 0.90</time>
            <time name="total">41.94 41.95</time>
            <energy>
                <i name="e_fr_energy">-407.41809904</i>
                <i name="e_wo_entrp">-407.40282794</i>
                <i name="e_0_energy">-407.41046349</i>
            </energy>
        </scstep>
        <scstep>
            <time name="diag">4.12 4.12</time>
            <time name="diis">31.46 31.47</time>
            <time name="orth">0.90 0.90</time>
            <time name="total">37.28 37.30</time>
            <energy>
                <i name="e_fr_energy">-405.24104369</i>
                <i name="e_wo_entrp">-405.23348539</i>
                <i name="e_0_energy">-405.23726454</i>
            </energy>
        </scstep>
        <scstep>
            <time name="diag">4.12 4.12</time>
            <time name="diis">32.12 32.13</time>
            <time name="orth">0.90 0.90</time>
            <time name="total">37.94 37.96</time>
            <energy>
                <i name="e_fr_energy">-410.46955818</i>
                <i name="e_wo_entrp">-410.46023472</i>
                <i name="e_0_energy">-410.46489645</i>
            </energy>
        </scstep>
        <scstep>
            <time name="diag">4.12 4.12</time>
            <time name="diis">31.41 31.42</time>
            <time name="orth">0.90 0.90</time>
            <time name="total">37.23 37.25</time>
            <energy>
                <i name="e_fr_energy">-413.21945727</i>
                <i name="e_wo_entrp">-413.21484657</i>
                <i name="e_0_energy">-413.21715192</i>
            </energy>
        </scstep>
        <scstep>
            <time name="diag">4.12 4.13</time>
            <time name="diis">31.24 31.25</time>
            <time name="orth">0.90 0.90</time>
            <time name="total">37.06 37.07</time>
            <energy>
                <i name="e_fr_energy">-417.71289222</i>
                <i name="e_wo_entrp">-417.70842399</i>
                <i name="e_0_energy">-417.71065810</i>
            </energy>
        </scstep>
        <scstep>
            <time name="diag">4.13 4.13</time>
            <time name="diis">31.94 31.95</time>
            <time name="orth">0.90 0.90</time>
            <time name="total">37.76 37.78</time>
            <energy>
                <i name="e_fr_energy">-419.23084317</i>
                <i name="e_wo_entrp">-419.22570381</i>
                <i name="e_0_energy">-419.22827349</i>
            </energy>
        </scstep>
        <scstep>
            <time name="diag">4.11 4.11</time>
            <time name="diis">33.13 33.14</time>
            <time name="orth">0.90 0.90</time>
            <time name="total">38.95 38.96</time>
            <energy>
                <i name="e_fr_energy">-418.74502558</i>
                <i name="e_wo_entrp">-418.74157623</i>
                <i name="e_0_energy">-418.74330090</i>
            </energy>
        </scstep>
        <scstep>
            <time name="diag">4.12 4.12</time>
            <time name="diis">31.37 31.38</time>
            <time name="orth">0.90 0.90</time>
            <time name="total">37.19 37.21</time>
            <energy>
                <i name="e_fr_energy">-419.39086081</i>
                <i name="e_wo_entrp">-419.38627334</i>
                <i name="e_0_energy">-419.38856708</i>
            </energy>
        </scstep>
        <scstep>
            <time name="diag">4.11 4.11</time>
            <time name="diis">31.49 31.50</time>
            <time name="orth">0.90 0.90</time>
            <time name="total">37.30 37.31</time>
            <energy>
                <i name="e_fr_energy">-419.87862890</i>
                <i name="e_wo_entrp">-419.87227141</i>
                <i name="e_0_energy">-419.87545015</i>
            </energy>
        </scstep>
        <scstep>
            <time name="diag">4.12 4.12</time>
            <time name="diis">32.60 32.61</time>
            <time name="orth">0.90 0.90</time>
            <time name="total">38.41 38.43</time>
            <energy>
                <i name="e_fr_energy">-421.34822204</i>
                <i name="e_wo_entrp">-421.34053591</i>
                <i name="e_0_energy">-421.34437897</i>
            </energy>
        </scstep>
        <scstep>
            <time name="diag">4.12 4.13</time>
            <time name="diis">32.50 32.50</time>
            <time name="orth">0.90 0.90</time>
            <time name="total">38.32 38.34</time>
            <energy>
                <i name="e_fr_energy">-425.52856517</i>
                <i name="e_wo_entrp">-425.52323827</i>
                <i name="e_0_energy">-425.52590172</i>
            </energy>
        </scstep>
        <scstep>
            <time name="diag">4.11 4.11</time>
            <time name="diis">33.59 33.60</time>
            <time name="orth">0.90 0.90</time>
            <time name="total">39.40 39.42</time>
            <energy>
                <i name="e_fr_energy">-425.43437395</i>
                <i name="e_wo_entrp">-425.43011488</i>
                <i name="e_0_energy">-425.43224441</i>
            </energy>
        </scstep>
        <scstep>
            <time name="diag">4.11 4.11</time>
            <time name="diis">33.55 33.56</time>
            <time name="orth">0.90 0.90</time>
            <time name="total">39.36 39.37</time>
            <energy>
                <i name="e_fr_energy">-424.22707842</i>
                <i name="e_wo_entrp">-424.22263864</i>
                <i name="e_0_energy">-424.22485853</i>
            </energy>
        </scstep>
        <scstep>
            <time name="diag">4.11 4.11</time>
            <time name="diis">31.93 31.94</time>
            <time name="orth">0.90 0.90</time>
            <time name="total">37.74 37.75</time>
            <energy>
                <i name="e_fr_energy">-424.00678180</i>
                <i name="e_wo_entrp">-424.00207034</i>
                <i name="e_0_energy">-424.00442607</i>
            </energy>
        </scstep>
        <scstep>
            <time name="diag">4.11 4.11</time>
            <time name="diis">32.60 32.61</time>
            <time name="orth">0.90 0.90</time>
            <time name="total">38.41 38.42</time>
            <energy>
                <i name="e_fr_energy">-424.08144171</i>
                <i name="e_wo_entrp">-424.07679782</i>
                <i name="e_0_energy">-424.07911976</i>
            </energy>
        </scstep>
        <scstep>
            <time name="diag">4.11 4.11</time>
            <time name="diis">32.03 32.04</time>
            <time name="orth">0.90 0.90</time>
            <time name="total">37.84 37.86</time>
            <energy>
                <i name="e_fr_energy">-424.96189711</i>
                <i name="e_wo_entrp">-424.95686875</i>
                <i name="e_0_energy">-424.95938293</i>
            </energy>
        </scstep>
        <scstep>
            <time name="diag">4.11 4.12</time>
            <time name="diis">32.89 32.90</time>
            <time name="orth">0.90 0.90</time>
            <time name="total">38.69 38.71</time>
            <energy>
                <i name="e_fr_energy">-424.24242244</i>
                <i name="e_wo_entrp">-424.23693885</i>
                <i name="e_0_energy">-424.23968064</i>
            </energy>
        </scstep>
        <scstep>
            <time name="diag">4.11 4.11</time>
            <time name="diis">31.78 31.79</time>
            <time name="orth">0.90 0.90</time>
            <time name="total">37.57 37.59</time>
            <energy>
                <i name="e_fr_energy">-424.08695680</i>
                <i name="e_wo_entrp">-424.08129838</i>
                <i name="e_0_energy">-424.08412759</i>
            </energy>
        </scstep>
        <scstep>
            <time name="diag">4.10 4.11</time>
            <time name="diis">35.18 35.19</time>
            <time name="orth">0.90 0.90</time>
            <time name="total">40.97 40.98</time>
            <energy>
                <i name="e_fr_energy">-424.06178805</i>
                <i name="e_wo_entrp">-424.05616108</i>
                <i name="e_0_energy">-424.05897456</i>
            </energy>
        </scstep>
        <scstep>
            <time name="diag">4.11 4.11</time>
            <time name="diis">30.97 30.98</time>
            <time name="orth">0.90 0.90</time>
            <time name="total">36.77 36.78</time>
            <energy>
                <i name="e_fr_energy">-423.87437719</i>
                <i name="e_wo_entrp">-423.87064293</i>
                <i name="e_0_energy">-423.87251006</i>
            </energy>
        </scstep>
        <scstep>
            <time name="diag">4.11 4.11</time>
            <time name="diis">32.96 32.98</time>
            <time name="orth">0.90 0.90</time>
            <time name="total">38.76 38.78</time>
            <energy>
                <i name="e_fr_energy">-422.83178135</i>
                <i name="e_wo_entrp">-422.82564076</i>
                <i name="e_0_energy">-422.82871105</i>
            </energy>
        </scstep>
        <scstep>
            <time name="diag">4.11 4.11</time>
            <time name="diis">32.82 32.84</time>
            <time name="orth">0.90 0.90</time>
            <time name="total">38.62 38.65</time>
            <energy>
                <i name="e_fr_energy">-422.01466348</i>
                <i name="e_wo_entrp">-422.00996659</i>
                <i name="e_0_energy">-422.01231504</i>
            </energy>
        </scstep>
        <scstep>
            <time name="diag">4.10 4.10</time>
            <time name="diis">30.84 30.84</time>
            <time name="orth">0.90 0.90</time>
            <time name="total">36.63 36.64</time>
            <energy>
                <i name="e_fr_energy">-421.50579692</i>
                <i name="e_wo_entrp">-421.50161227</i>
                <i name="e_0_energy">-421.50370460</i>
            </energy>
        </scstep>
        <scstep>
            <time name="diag">4.10 4.10</time>
            <time name="diis">32.62 32.62</time>
            <time name="orth">0.90 0.90</time>
            <time name="total">38.41 38.43</time>
            <energy>
                <i name="e_fr_energy">-419.53086751</i>
                <i name="e_wo_entrp">-419.52648399</i>
                <i name="e_0_energy">-419.52867575</i>
            </energy>
        </scstep>
        <scstep>
            <time name="diag">4.10 4.11</time>
            <time name="diis">34.63 34.64</time>
            <time name="orth">0.90 0.90</time>
            <time name="total">40.42 40.44</time>
            <energy>
                <i name="e_fr_energy">-419.67760939</i>
                <i name="e_wo_entrp">-419.67319243</i>
                <i name="e_0_energy">-419.67540091</i>
            </energy>
        </scstep>
        <scstep>
            <time name="diag">4.10 4.10</time>
            <time name="diis">29.61 29.62</time>
            <time name="orth">0.90 0.90</time>
            <time name="total">35.41 35.42</time>
            <energy>
                <i name="e_fr_energy">-419.62785085</i>
                <i name="e_wo_entrp">-419.62345436</i>
                <i name="e_0_energy">-419.62565260</i>
            </energy>
        </scstep>
        <scstep>
            <time name="diag">4.12 4.12</time>
            <time name="diis">31.05 31.05</time>
            <time name="orth">0.90 0.90</time>
            <time name="total">36.86 36.87</time>
            <energy>
                <i name="e_fr_energy">-420.32860872</i>
                <i name="e_wo_entrp">-420.32360860</i>
                <i name="e_0_energy">-420.32610866</i>
            </energy>
        </scstep>
        <scstep>
            <time name="diag">4.11 4.12</time>
            <time name="diis">31.66 31.68</time>
            <time name="orth">0.90 0.90</time>
            <time name="total">37.47 37.50</time>
            <energy>
                <i name="e_fr_energy">-421.44636486</i>
                <i name="e_wo_entrp">-421.44141684</i>
                <i name="e_0_energy">-421.44389085</i>
            </energy>
        </scstep>
        <scstep>
            <time name="diag">4.11 4.11</time>
            <time name="diis">32.06 32.08</time>
            <time name="orth">0.90 0.90</time>
            <time name="total">37.88 37.90</time>
            <energy>
                <i name="e_fr_energy">-422.00604831</i>
                <i name="e_wo_entrp">-422.00115904</i>
                <i name="e_0_energy">-422.00360367</i>
            </energy>
        </scstep>
        <scstep>
            <time name="diag">4.11 4.12</time>
            <time name="diis">32.08 32.09</time>
            <time name="orth">0.90 0.90</time>
            <time name="total">37.89 37.91</time>
            <energy>
                <i name="e_fr_energy">-426.21759015</i>
                <i name="e_wo_entrp">-426.21048850</i>
                <i name="e_0_energy">-426.21403933</i>
            </energy>
        </scstep>
        <scstep>
            <time name="diag">4.12 4.12</time>
            <time name="diis">33.49 33.51</time>
            <time name="orth">0.90 0.90</time>
            <time name="total">39.31 39.32</time>
            <energy>
                <i name="e_fr_energy">-428.83633019</i>
                <i name="e_wo_entrp">-428.83183271</i>
                <i name="e_0_energy">-428.83408145</i>
            </energy>
        </scstep>
        <scstep>
            <time name="diag">4.11 4.11</time>
            <time name="diis">33.80 33.81</time>
            <time name="orth">0.90 0.90</time>
            <time name="total">39.60 39.63</time>
            <energy>
                <i name="e_fr_energy">-430.03152208</i>
                <i name="e_wo_entrp">-430.02856949</i>
                <i name="e_0_energy">-430.03004578</i>
            </energy>
        </scstep>
        <scstep>
            <time name="diag">4.11 4.11</time>
            <time name="diis">29.44 29.45</time>
            <time name="orth">0.90 0.90</time>
            <time name="total">35.23 35.26</time>
            <energy>
                <i name="e_fr_energy">-430.17538038</i>
                <i name="e_wo_entrp">-430.17232073</i>
                <i name="e_0_energy">-430.17385055</i>
            </energy>
        </scstep>
        <scstep>
            <time name="diag">4.11 4.11</time>
            <time name="diis">32.57 32.59</time>
            <time name="orth">0.90 0.90</time>
            <time name="total">38.38 38.40</time>
            <energy>
                <i name="e_fr_energy">-429.66427869</i>
                <i name="e_wo_entrp">-429.66095139</i>
                <i name="e_0_energy">-429.66261504</i>
            </energy>
        </scstep>
        <scstep>
            <time name="diag">4.10 4.11</time>
            <time name="diis">33.38 33.39</time>
            <time name="orth">0.90 0.90</time>
            <time name="total">39.18 39.19</time>
            <energy>
                <i name="e_fr_energy">-429.69923206</i>
                <i name="e_wo_entrp">-429.69667710</i>
                <i name="e_0_energy">-429.69795458</i>
            </energy>
        </scstep>
        <scstep>
            <time name="diag">4.11 4.11</time>
            <time name="diis">33.05 33.06</time>
            <time name="orth">0.90 0.90</time>
            <time name="total">38.86 38.88</time>
            <energy>
                <i name="e_fr_energy">-430.20281467</i>
                <i name="e_wo_entrp">-430.20010636</i>
                <i name="e_0_energy">-430.20146052</i>
            </energy>
        </scstep>
        <scstep>
            <time name="diag">4.11 4.11</time>
            <time name="diis">31.37 31.38</time>
            <time name="orth">0.90 0.90</time>
            <time name="total">37.17 37.18</time>
            <energy>
                <i name="e_fr_energy">-429.37133801</i>
                <i name="e_wo_entrp">-429.36924743</i>
                <i name="e_0_energy">-429.37029272</i>
            </energy>
        </scstep>
        <scstep>
            <time name="diag">4.11 4.11</time>
            <time name="diis">32.43 32.43</time>
            <time name="orth">0.90 0.90</time>
            <time name="total">38.23 38.25</time>
            <energy>
                <i name="e_fr_energy">-430.00946365</i>
                <i name="e_wo_entrp">-430.00839549</i>
                <i name="e_0_energy">-430.00892957</i>
            </energy>
        </scstep>
        <scstep>
            <time name="diag">4.11 4.11</time>
            <time name="diis">32.73 32.74</time>
            <time name="orth">0.90 0.90</time>
            <time name="total">38.54 38.55</time>
            <energy>
                <i name="e_fr_energy">-430.28020383</i>
                <i name="e_wo_entrp">-430.27936179</i>
                <i name="e_0_energy">-430.27978281</i>
            </energy>
        </scstep>
        <scstep>
            <time name="diag">4.10 4.11</time>
            <time name="diis">33.48 33.49</time>
            <time name="orth">0.90 0.90</time>
            <time name="total">39.28 39.30</time>
            <energy>
                <i name="e_fr_energy">-430.30157367</i>
                <i name="e_wo_entrp">-430.30091866</i>
                <i name="e_0_energy">-430.30124616</i>
            </energy>
        </scstep>
        <scstep>
            <time name="diag">4.11 4.11</time>
            <time name="diis">34.14 34.15</time>
            <time name="orth">0.90 0.90</time>
            <time name="total">39.95 39.96</time>
            <energy>
                <i name="e_fr_energy">-429.18827950</i>
                <i name="e_wo_entrp">-429.18422946</i>
                <i name="e_0_energy">-429.18625448</i>
            </energy>
        </scstep>
        <scstep>
            <time name="diag">4.11 4.11</time>
            <time name="diis">32.45 32.46</time>
            <time name="orth">0.90 0.90</time>
            <time name="total">38.26 38.28</time>
            <energy>
                <i name="e_fr_energy">-425.60466303</i>
                <i name="e_wo_entrp">-425.59855238</i>
                <i name="e_0_energy">-425.60160771</i>
            </energy>
        </scstep>
        <scstep>
            <time name="diag">4.11 4.11</time>
            <time name="diis">32.29 32.30</time>
            <time name="orth">0.90 0.90</time>
            <time name="total">38.11 38.12</time>
            <energy>
                <i name="e_fr_energy">-426.20956378</i>
                <i name="e_wo_entrp">-426.20414218</i>
                <i name="e_0_energy">-426.20685298</i>
            </energy>
        </scstep>
        <scstep>
            <time name="diag">4.11 4.11</time>
            <time name="diis">33.65 33.66</time>
            <time name="orth">0.90 0.90</time>
            <time name="total">39.46 39.49</time>
            <energy>
                <i name="e_fr_energy">-425.79123567</i>
                <i name="e_wo_entrp">-425.78628485</i>
                <i name="e_0_energy">-425.78876026</i>
            </energy>
        </scstep>
        <scstep>
            <time name="diag">4.11 4.11</time>
            <time name="diis">33.81 33.82</time>
            <time name="orth">0.90 0.90</time>
            <time name="total">39.62 39.64</time>
            <energy>
                <i name="e_fr_energy">-425.59245762</i>
                <i name="e_wo_entrp">-425.59040259</i>
                <i name="e_0_energy">-425.59143010</i>
            </energy>
        </scstep>
        <scstep>
            <time name="diag">4.11 4.11</time>
            <time name="diis">32.67 32.68</time>
            <time name="orth">0.90 0.90</time>
            <time name="total">38.48 38.50</time>
            <energy>
                <i name="e_fr_energy">-426.18887230</i>
                <i name="e_wo_entrp">-426.18301549</i>
                <i name="e_0_energy">-426.18594390</i>
            </energy>
        </scstep>
        <scstep>
            <time name="diag">4.11 4.11</time>
            <time name="diis">33.12 33.12</time>
            <time name="orth">0.90 0.90</time>
            <time name="total">38.92 38.94</time>
            <energy>
                <i name="e_fr_energy">-430.03781490</i>
                <i name="e_wo_entrp">-430.03427341</i>
                <i name="e_0_energy">-430.03604416</i>
            </energy>
        </scstep>
        <scstep>
            <time name="diag">4.10 4.11</time>
            <time name="diis">32.69 32.70</time>
            <time name="orth">0.90 0.90</time>
            <time name="total">38.50 38.52</time>
            <energy>
                <i name="e_fr_energy">-431.01325095</i>
                <i name="e_wo_entrp">-431.00963695</i>
                <i name="e_0_energy">-431.01144395</i>
            </energy>
        </scstep>
        <scstep>
            <time name="diag">4.11 4.11</time>
            <time name="diis">33.14 33.15</time>
            <time name="orth">0.90 0.90</time>
            <time name="total">38.95 38.97</time>
            <energy>
                <i name="e_fr_energy">-432.54650715</i>
                <i name="e_wo_entrp">-432.54269700</i>
                <i name="e_0_energy">-432.54460207</i>
            </energy>
        </scstep>
        <scstep>
            <time name="diag">4.10 4.10</time>
            <time name="diis">33.83 33.84</time>
            <time name="orth">0.90 0.90</time>
            <time name="total">39.63 39.65</time>
            <energy>
                <i name="e_fr_energy">-432.59233541</i>
                <i name="e_wo_entrp">-432.58875732</i>
                <i name="e_0_energy">-432.59054637</i>
            </energy>
        </scstep>
        <scstep>
            <time name="diag">4.10 4.10</time>
            <time name="diis">33.53 33.54</time>
            <time name="orth">0.90 0.90</time>
            <time name="total">39.34 39.35</time>
            <energy>
                <i name="e_fr_energy">-430.89856983</i>
                <i name="e_wo_entrp">-430.89470430</i>
                <i name="e_0_energy">-430.89663707</i>
            </energy>
        </scstep>
        <scstep>
            <time name="diag">4.10 4.10</time>
            <time name="diis">32.99 33.00</time>
            <time name="orth">0.90 0.90</time>
            <time name="total">38.80 38.81</time>
            <energy>
                <i name="e_fr_energy">-427.76208617</i>
                <i name="e_wo_entrp">-427.75433157</i>
                <i name="e_0_energy">-427.75820887</i>
            </energy>
        </scstep>
        <scstep>
            <time name="diag">4.10 4.11</time>
            <time name="diis">33.68 33.69</time>
            <time name="orth">0.90 0.90</time>
            <time name="total">39.49 39.51</time>
            <energy>
                <i name="e_fr_energy">-427.81043007</i>
                <i name="e_wo_entrp">-427.80262336</i>
                <i name="e_0_energy">-427.80652672</i>
            </energy>
        </scstep>
        <scstep>
            <time name="diag">4.10 4.10</time>
            <time name="diis">33.85 33.86</time>
            <time name="orth">0.90 0.90</time>
            <time name="total">39.66 39.67</time>
            <energy>
                <i name="e_fr_energy">-427.84178195</i>
                <i name="e_wo_entrp">-427.83400756</i>
                <i name="e_0_energy">-427.83789476</i>
            </energy>
        </scstep>
        <scstep>
            <time name="diag">4.10 4.10</time>
            <time name="diis">31.86 31.86</time>
            <time name="orth">0.90 0.90</time>
            <time name="total">37.66 37.67</time>
            <energy>
                <i name="e_fr_energy">-427.65597307</i>
                <i name="e_wo_entrp">-427.64828939</i>
                <i name="e_0_energy">-427.65213123</i>
            </energy>
        </scstep>
        <scstep>
            <time name="diag">4.11 4.11</time>
            <time name="diis">30.28 30.28</time>
            <time name="orth">0.90 0.90</time>
            <time name="total">36.09 36.11</time>
            <energy>
                <i name="e_fr_energy">-426.82493390</i>
                <i name="e_wo_entrp">-426.81877760</i>
                <i name="e_0_energy">-426.82185575</i>
            </energy>
        </scstep>
        <scstep>
            <time name="diag">4.10 4.10</time>
            <time name="diis">32.21 32.22</time>
            <time name="orth">0.90 0.90</time>
            <time name="total">38.01 38.03</time>
            <energy>
                <i name="e_fr_energy">-426.97704711</i>
                <i name="e_wo_entrp">-426.97298918</i>
                <i name="e_0_energy">-426.97501814</i>
            </energy>
        </scstep>
        <scstep>
            <time name="diag">4.10 4.11</time>
            <time name="diis">31.59 31.60</time>
            <time name="orth">0.90 0.90</time>
            <time name="total">37.40 37.42</time>
            <energy>
                <i name="e_fr_energy">-427.57808248</i>
                <i name="e_wo_entrp">-427.57358399</i>
                <i name="e_0_energy">-427.57583324</i>
            </energy>
        </scstep>
        <scstep>
            <time name="diag">4.10 4.10</time>
            <time name="diis">33.94 33.95</time>
            <time name="orth">0.90 0.90</time>
            <time name="total">39.74 39.76</time>
            <energy>
                <i name="e_fr_energy">-427.59989317</i>
                <i name="e_wo_entrp">-427.59545805</i>
                <i name="e_0_energy">-427.59767561</i>
            </energy>
        </scstep>
        <scstep>
            <time name="diag">4.10 4.11</time>
            <time name="diis">32.56 32.57</time>
            <time name="orth">0.90 0.90</time>
            <time name="total">38.36 38.38</time>
            <energy>
                <i name="e_fr_energy">-427.62656789</i>
                <i name="e_wo_entrp">-427.62189288</i>
                <i name="e_0_energy">-427.62423039</i>
            </energy>
        </scstep>
        <scstep>
            <time name="diag">4.10 4.10</time>
            <time name="diis">31.33 31.34</time>
            <time name="orth">0.90 0.90</time>
            <time name="total">37.14 37.16</time>
            <energy>
                <i name="e_fr_energy">-427.54264309</i>
                <i name="e_wo_entrp">-427.53794351</i>
                <i name="e_0_energy">-427.54029330</i>
            </energy>
        </scstep>
        <scstep>
            <time name="diag">4.10 4.10</time>
            <time name="diis">29.27 29.28</time>
            <time name="orth">0.90 0.90</time>
            <time name="total">35.07 35.09</time>
            <energy>
                <i name="e_fr_energy">-427.46979304</i>
                <i name="e_wo_entrp">-427.46373352</i>
                <i name="e_0_energy">-427.46676328</i>
            </energy>
        </scstep>
        <scstep>
            <time name="diag">4.10 4.10</time>
            <time name="diis">31.84 31.84</time>
            <time name="orth">0.90 0.90</time>
            <time name="total">37.64 37.65</time>
            <energy>
                <i name="e_fr_energy">-427.24965510</i>
                <i name="e_wo_entrp">-427.24395393</i>
                <i name="e_0_energy">-427.24680451</i>
            </energy>
        </scstep>
        <scstep>
            <time name="diag">4.11 4.11</time>
            <time name="diis">33.14 33.16</time>
            <time name="orth">0.90 0.90</time>
            <time name="total">38.96 38.98</time>
            <energy>
                <i name="e_fr_energy">-427.37828607</i>
                <i name="e_wo_entrp">-427.37286312</i>
                <i name="e_0_energy">-427.37557459</i>
            </energy>
        </scstep>
        <scstep>
            <time name="diag">4.10 4.10</time>
            <time name="diis">34.00 34.02</time>
            <time name="orth">0.90 0.90</time>
            <time name="total">39.81 39.83</time>
            <energy>
                <i name="e_fr_energy">-427.12925944</i>
                <i name="e_wo_entrp">-427.12311185</i>
                <i name="e_0_energy">-427.12618565</i>
            </energy>
        </scstep>
        <scstep>
            <time name="diag">4.10 4.10</time>
            <time name="diis">32.89 32.91</time>
            <time name="orth">0.90 0.90</time>
            <time name="total">38.70 38.73</time>
            <energy>
                <i name="e_fr_energy">-426.92982325</i>
                <i name="e_wo_entrp">-426.92394018</i>
                <i name="e_0_energy">-426.92688172</i>
            </energy>
        </scstep>
        <scstep>
            <time name="diag">4.10 4.11</time>
            <time name="diis">32.26 32.28</time>
            <time name="orth">0.90 0.90</time>
            <time name="total">38.08 38.10</time>
            <energy>
                <i name="e_fr_energy">-427.10449999</i>
                <i name="e_wo_entrp">-427.09865113</i>
                <i name="e_0_energy">-427.10157556</i>
            </energy>
        </scstep>
        <scstep>
            <time name="diag">4.10 4.10</time>
            <time name="diis">31.90 31.92</time>
            <time name="orth">0.90 0.90</time>
            <time name="total">37.72 37.74</time>
            <energy>
                <i name="e_fr_energy">-426.98226332</i>
                <i name="e_wo_entrp">-426.97601952</i>
                <i name="e_0_energy">-426.97914142</i>
            </energy>
        </scstep>
        <scstep>
            <time name="diag">4.10 4.10</time>
            <time name="diis">31.52 31.53</time>
            <time name="orth">0.90 0.90</time>
            <time name="total">37.34 37.35</time>
            <energy>
                <i name="e_fr_energy">-427.00200665</i>
                <i name="e_wo_entrp">-426.99565851</i>
                <i name="e_0_energy">-426.99883258</i>
            </energy>
        </scstep>
        <scstep>
            <time name="diag">4.10 4.10</time>
            <time name="diis">31.42 31.42</time>
            <time name="orth">0.90 0.90</time>
            <time name="total">37.23 37.25</time>
            <energy>
                <i name="e_fr_energy">-426.94463918</i>
                <i name="e_wo_entrp">-426.93727458</i>
                <i name="e_0_energy">-426.94095688</i>
            </energy>
        </scstep>
        <scstep>
            <time name="diag">4.10 4.10</time>
            <time name="diis">26.31 26.32</time>
            <time name="orth">0.90 0.90</time>
            <time name="total">32.13 32.14</time>
            <energy>
                <i name="e_fr_energy">-427.00459624</i>
                <i name="e_wo_entrp">-426.99718097</i>
                <i name="e_0_energy">-427.00088860</i>
            </energy>
        </scstep>
        <scstep>
            <time name="diag">4.11 4.11</time>
            <time name="diis">29.14 29.15</time>
            <time name="orth">0.90 0.90</time>
            <time name="total">34.97 34.98</time>
            <energy>
                <i name="e_fr_energy">-426.18858521</i>
                <i name="e_wo_entrp">-426.18172130</i>
                <i name="e_0_energy">-426.18515325</i>
            </energy>
        </scstep>
        <scstep>
            <time name="diag">4.10 4.10</time>
            <time name="diis">29.73 29.74</time>
            <time name="orth">0.90 0.90</time>
            <time name="total">35.55 35.56</time>
            <energy>
                <i name="e_fr_energy">-426.16636934</i>
                <i name="e_wo_entrp">-426.16048570</i>
                <i name="e_0_energy">-426.16342752</i>
            </energy>
        </scstep>
        <scstep>
            <time name="diag">4.10 4.10</time>
            <time name="diis">29.19 29.20</time>
            <time name="orth">0.90 0.90</time>
            <time name="total">35.01 35.03</time>
            <energy>
                <i name="e_fr_energy">-426.15887097</i>
                <i name="e_wo_entrp">-426.15242571</i>
                <i name="e_0_energy">-426.15564834</i>
            </energy>
        </scstep>
        <scstep>
            <time name="diag">4.10 4.10</time>
            <time name="diis">29.32 29.33</time>
            <time name="orth">0.90 0.90</time>
            <time name="total">35.14 35.15</time>
            <energy>
                <i name="e_fr_energy">-426.14699591</i>
                <i name="e_wo_entrp">-426.14037599</i>
                <i name="e_0_energy">-426.14368595</i>
            </energy>
        </scstep>
        <scstep>
            <time name="diag">4.10 4.10</time>
            <time name="diis">26.32 26.33</time>
            <time name="orth">0.90 0.90</time>
            <time name="total">32.15 32.16</time>
            <energy>
                <i name="e_fr_energy">-426.18933210</i>
                <i name="e_wo_entrp">-426.18315383</i>
                <i name="e_0_energy">-426.18624296</i>
            </energy>
        </scstep>
        <scstep>
            <time name="diag">4.11 4.11</time>
            <time name="diis">28.98 28.99</time>
            <time name="orth">0.90 0.90</time>
            <time name="total">34.81 34.82</time>
            <energy>
                <i name="e_fr_energy">-426.69892193</i>
                <i name="e_wo_entrp">-426.69137764</i>
                <i name="e_0_energy">-426.69514978</i>
            </energy>
        </scstep>
        <scstep>
            <time name="diag">4.10 4.11</time>
            <time name="diis">28.72 28.73</time>
            <time name="orth">0.90 0.90</time>
            <time name="total">34.55 34.57</time>
            <energy>
                <i name="e_fr_energy">-428.00499284</i>
                <i name="e_wo_entrp">-427.99810343</i>
                <i name="e_0_energy">-428.00154814</i>
            </energy>
        </scstep>
        <scstep>
            <time name="diag">4.11 4.11</time>
            <time name="diis">31.72 31.73</time>
            <time name="orth">0.90 0.90</time>
            <time name="total">37.55 37.57</time>
            <energy>
                <i name="e_fr_energy">-427.04167666</i>
                <i name="e_wo_entrp">-427.03434033</i>
                <i name="e_0_energy">-427.03800849</i>
            </energy>
        </scstep>
        <scstep>
            <time name="diag">4.10 4.10</time>
            <time name="diis">34.30 34.31</time>
            <time name="orth">0.90 0.90</time>
            <time name="total">40.13 40.15</time>
            <energy>
                <i name="e_fr_energy">-426.83855004</i>
                <i name="e_wo_entrp">-426.83022551</i>
                <i name="e_0_energy">-426.83438777</i>
            </energy>
        </scstep>
        <scstep>
            <time name="diag">4.10 4.11</time>
            <time name="diis">34.24 34.25</time>
            <time name="orth">0.90 0.90</time>
            <time name="total">40.07 40.08</time>
            <energy>
                <i name="e_fr_energy">-426.81421222</i>
                <i name="e_wo_entrp">-426.80567786</i>
                <i name="e_0_energy">-426.80994504</i>
            </energy>
        </scstep>
        <scstep>
            <time name="diag">4.12 4.12</time>
            <time name="diis">31.67 31.68</time>
            <time name="orth">0.90 0.90</time>
            <time name="total">37.51 37.53</time>
            <energy>
                <i name="e_fr_energy">-426.78681264</i>
                <i name="e_wo_entrp">-426.77959018</i>
                <i name="e_0_energy">-426.78320141</i>
            </energy>
        </scstep>
        <scstep>
            <time name="diag">4.10 4.10</time>
            <time name="diis">32.50 32.51</time>
            <time name="orth">0.90 0.90</time>
            <time name="total">38.32 38.34</time>
            <energy>
                <i name="e_fr_energy">-426.70738224</i>
                <i name="e_wo_entrp">-426.69951858</i>
                <i name="e_0_energy">-426.70345041</i>
            </energy>
        </scstep>
        <scstep>
            <time name="diag">4.10 4.10</time>
            <time name="diis">31.98 31.99</time>
            <time name="orth">0.90 0.90</time>
            <time name="total">37.80 37.82</time>
            <energy>
                <i name="e_fr_energy">-426.93009455</i>
                <i name="e_wo_entrp">-426.92201683</i>
                <i name="e_0_energy">-426.92605569</i>
            </energy>
        </scstep>
        <scstep>
            <time name="diag">4.10 4.10</time>
            <time name="diis">32.93 32.95</time>
            <time name="orth">0.90 0.90</time>
            <time name="total">38.75 38.77</time>
            <energy>
                <i name="e_fr_energy">-426.99921192</i>
                <i name="e_wo_entrp">-426.99220285</i>
                <i name="e_0_energy">-426.99570739</i>
            </energy>
        </scstep>
        <scstep>
            <time name="diag">4.10 4.10</time>
            <time name="diis">33.41 33.43</time>
            <time name="orth">0.90 0.90</time>
            <time name="total">38.55 38.57</time>
            <energy>
                <i name="alphaZ">1029.28715085</i>
                <i name="ewald">123674.47218821</i>
                <i name="hartreedc">-150495.52591647</i>
                <i name="XCdc">1181.09341095</i>
                <i name="pawpsdc">47391.65949057</i>
                <i name="pawaedc">-47275.67438085</i>
                <i name="eentropy">-0.00686579</i>
                <i name="bandstr">-5690.12108885</i>
                <i name="atom">29757.76472481</i>
                <i name="e_fr_energy">-427.05128655</i>
                <i name="e_wo_entrp">-427.04442076</i>
                <i name="e_0_energy">-427.04785366</i>
            </energy>
        </scstep>
        <structure>
            <crystal>
                <varray name="basis">
                    <v>8.98635323 0.00000000 0.00000000</v>
                    <v>-4.49317661 7.78242983 0.00000000</v>
                    <v>-0.00000000 0.00000000 21.81413279</v>
                </varray>
                <i name="volume">1525.58584821</i>
                <varray name="rec_basis">
                    <v>0.11127985 0.06424729 0.00000000</v>
                    <v>0.00000000 0.12849457 -0.00000000</v>
                    <v>0.00000000 0.00000000 0.04584184</v>
                </varray>
            </crystal>
            <varray name="positions">
                <v>0.99999998 0.00000003 0.49999884</v>
                <v>0.99999992 0.33333329 0.49999884</v>
                <v>0.99999999 0.66666663 0.49999885</v>
                <v>0.33333331 0.99999998 0.49999885</v>
                <v>0.33333324 0.33333327 0.49999884</v>
                <v>0.33333327 0.66666664 0.49999884</v>
                <v>0.66666675 0.00000009 0.49999884</v>
                <v>0.66666675 0.33333331 0.49999885</v>
                <v>0.66666673 0.66666671 0.49999884</v>
                <v>0.11111143 0.22222283 0.56396875</v>
                <v>0.11111134 0.55555588 0.56396876</v>
                <v>0.11111107 0.88888923 0.56396877</v>
                <v>0.44444378 0.22222256 0.56396887</v>
                <v>0.44444383 0.55555553 0.56396879</v>
                <v>0.44444377 0.88888862 0.56396887</v>
                <v>0.77777866 0.22222306 0.56396894</v>
                <v>0.77777839 0.55555638 0.56396886</v>
                <v>0.77777843 0.88888932 0.56396887</v>
                <v>0.22222170 0.11111072 0.43603192</v>
                <v>0.22222195 0.44444392 0.43603199</v>
                <v>0.22222163 0.77777695 0.43603191</v>
                <v>0.55555516 0.11111065 0.43603176</v>
                <v>0.55555507 0.44444414 0.43603186</v>
                <v>0.55555505 0.77777684 0.43603184</v>
                <v>0.88888976 0.11111115 0.43603186</v>
                <v>0.88888968 0.44444460 0.43603188</v>
                <v>0.88888939 0.77777764 0.43603190</v>
                <v>0.99999965 0.99999979 0.61734560</v>
                <v>0.99999930 0.33333276 0.61734560</v>
                <v>0.99999975 0.66666633 0.61734561</v>
                <v>0.33333412 0.00000017 0.61734541</v>
                <v>0.33333383 0.33333323 0.61734554</v>
                <v>0.33333388 0.66666704 0.61734550</v>
                <v>0.66666628 0.99999994 0.61734517</v>
                <v>0.66666625 0.33333262 0.61734521</v>
                <v>0.66666637 0.66666647 0.61734532</v>
                <v>0.99999934 0.99999980 0.38265492</v>
                <v>0.99999905 0.33333299 0.38265488</v>
                <v>0.99999944 0.66666656 0.38265492</v>
                <v>0.33333408 0.00000047 0.38265507</v>
                <v>0.33333390 0.33333352 0.38265490</v>
                <v>0.33333395 0.66666746 0.38265494</v>
                <v>0.66666684 0.00000047 0.38265529</v>
                <v>0.66666686 0.33333328 0.38265526</v>
                <v>0.66666707 0.66666710 0.38265515</v>
                <v>0.66631000 0.66596000 0.30000000</v>
            </varray>
        </structure>
        <varray name="forces">
            <v>-0.05258764 0.00026562 -0.09595467</v>
            <v>0.01213062 0.01881427 -0.02658678</v>
            <v>-0.02417502 -0.06071296 -0.08848120</v>
            <v>0.05894638 0.03838833 -0.10545263</v>
            <v>-0.00270212 0.07000179 -0.08788900</v>
            <v>0.05780080 -0.04883871 -0.09170904</v>
            <v>0.01862623 0.00273304 -0.09496850</v>
            <v>0.01753235 0.01718620 -0.08469929</v>
            <v>-0.01155571 -0.01160031 -0.26856898</v>
[...]
                            <r>-33.7764 27.4728 15.8819</r>
                            <r>-33.6407 49.7036 22.6298</r>
                            <r>-33.5050 71.1236 32.2884</r>
                            <r>-33.3694 72.4413 42.1347</r>
                            <r>-33.2337 53.9818 49.4729</r>
                            <r>-33.0981 32.5954 53.9094</r>
                            <r>-32.9624 0.6231 54.0000</r>
                            <r>-32.8268 0.0000 54.0000</r>
                            <r>-32.6911 0.0000 54.0000</r>
                            <r>-32.5555 0.0000 54.0000</r>
                            <r>-32.4198 0.0000 54.0000</r>
                            <r>-32.2842 0.0000 54.0000</r>
                            <r>-32.1485 0.0000 54.0000</r>
                            <r>-32.0129 0.0000 54.0000</r>
                            <r>-31.8772 0.0000 54.0000</r>
                            <r>-31.7415 0.0000 54.0000</r>
                            <r>-31.6059 0.0000 54.0000</r>
                            <r>-31.4702 0.0000 54.0000</r>
                            <r>-31.3346 0.0000 54.0000</r>
                            <r>-31.1989 0.0000 54.0000</r>
                            <r>-31.0633 0.0000 54.0000</r>
                            <r>-30.9276 0.0000 54.0000</r>
                            <r>-30.7920 0.0000 54.0000</r>
                            <r>-30.6563 0.0000 54.0000</r>
                            <r>-30.5207 0.0000 54.0000</r>
                            <r>-30.3850 0.0000 54.0000</r>
                            <r>-30.2494 0.0000 54.0000</r>
                            <r>-30.1137 0.0000 54.0000</r>
                            <r>-29.9780 0.0000 54.0000</r>
                            <r>-29.8424 0.0000 54.0000</r>
                            <r>-29.7067 0.0000 54.0000</r>
                            <r>-29.5711 0.0000 54.0000</r>
                            <r>-29.4354 0.0000 54.0000</r>
                            <r>-29.2998 0.0000 54.0000</r>
                            <r>-29.1641 0.0000 54.0000</r>
                            <r>-29.0285 0.0000 54.0000</r>
                            <r>-28.8928 0.0000 54.0000</r>
                            <r>-28.7572 0.0000 54.0000</r>
                            <r>-28.6215 0.0000 54.0000</r>
                            <r>-28.4859 0.0000 54.0000</r>
                            <r>-28.3502 0.0000 54.0000</r>
                            <r>-28.2145 0.0000 54.0000</r>
                            <r>-28.0789 0.0000 54.0000</r>
                            <r>-27.9432 0.0000 54.0000</r>
                            <r>-27.8076 0.0000 54.0000</r>
                            <r>-27.6719 0.0000 54.0000</r>
                            <r>-27.5363 0.0000 54.0000</r>
                            <r>-27.4006 0.0000 54.0000</r>
                            <r>-27.2650 0.0000 54.0000</r>
                            <r>-27.1293 0.0000 54.0000</r>
                            <r>-26.9937 0.0000 54.0000</r>
                            <r>-26.8580 0.0000 54.0000</r>
                            <r>-26.7224 0.0000 54.0000</r>
                            <r>-26.5867 0.0000 54.0000</r>
                            <r>-26.4511 0.0000 54.0000</r>
                            <r>-26.3154 0.0000 54.0000</r>
                            <r>-26.1797 0.0000 54.0000</r>
                            <r>-26.0441 0.0000 54.0000</r>
                            <r>-25.9084 0.0000 54.0000</r>
                            <r>-25.7728 0.0000 54.0000</r>
                            <r>-25.6371 0.0000 54.0000</r>
                            <r>-25.5015 0.0000 54.0000</r>
                            <r>-25.3658 0.0000 54.0000</r>
                            <r>-25.2302 0.0000 54.0000</r>
                            <r>-25.0945 0.0000 54.0000</r>
                            <r>-24.9589 0.0000 54.0000</r>
                            <r>-24.8232 0.0000 54.0000</r>
                            <r>-24.6876 0.0000 54.0000</r>
                            <r>-24.5519 0.0000 54.0000</r>
                            <r>-24.4162 0.0000 54.0000</r>
                            <r>-24.2806 0.0000 54.0000</r>
                            <r>-24.1449 0.0000 54.0000</r>
                            <r>-24.0093 0.0000 54.0000</r>
                            <r>-23.8736 0.0000 54.0000</r>
                            <r>-23.7380 0.0000 54.0000</r>
                            <r>-23.6023 0.0000 54.0000</r>
                            <r>-23.4667 0.0000 54.0000</r>
                            <r>-23.3310 0.0000 54.0000</r>
                            <r>-23.1954 0.0000 54.0000</r>
                            <r>-23.0597 0.0000 54.0000</r>
                            <r>-22.9241 0.0000 54.0000</r>
                            <r>-22.7884 0.0000 54.0000</r>
                            <r>-22.6527 0.0000 54.0000</r>
                            <r>-22.5171 0.0000 54.0000</r>
                            <r>-22.3814 0.0000 54.0000</r>
                            <r>-22.2458 0.0000 54.0000</r>
                            <r>-22.1101 0.0000 54.0000</r>
                            <r>-21.9745 0.0000 54.0000</r>
                            <r>-21.8388 0.0000 54.0000</r>
                            <r>-21.7032 0.0000 54.0000</r>
                            <r>-21.5675 0.0000 54.0000</r>
                            <r>-21.4319 7.3266 54.9939</r>
                            <r>-21.2962 0.0000 55.0000</r>
                            <r>-21.1606 0.0000 55.0000</r>
                            <r>-21.0249 0.0000 55.0000</r>
                            <r>-20.8892 0.0000 55.0000</r>
                            <r>-20.7536 0.0000 55.0000</r>
                            <r>-20.6179 0.0000 55.0000</r>
                            <r>-20.4823 2.0864 55.2830</r>
                            <r>-20.3466 4.7271 55.9249</r>
                            <r>-20.2110 15.1281 57.9771</r>
                            <r>-20.0753 36.0138 62.8717</r>
                            <r>-19.9397 66.9121 71.9559</r>
                            <r>-19.8040 0.2501 72.0000</r>
                            <r>-19.6684 0.0000 72.0000</r>
                            <r>-19.5327 0.0000 72.0000</r>
                            <r>-19.3971 0.0000 72.0000</r>
                            <r>-19.2614 0.0000 72.0000</r>
                            <r>-19.1257 0.0000 72.0000</r>
                            <r>-18.9901 0.0000 72.0000</r>
                            <r>-18.8544 0.0000 72.0000</r>
                            <r>-18.7188 0.0000 72.0000</r>
                            <r>-18.5831 0.0000 72.0000</r>
                            <r>-18.4475 0.0000 72.0000</r>
                            <r>-18.3118 0.0000 72.0000</r>
                            <r>-18.1762 0.0000 72.0000</r>
                            <r>-18.0405 0.0000 72.0000</r>
                            <r>-17.9049 0.0000 72.0000</r>
                            <r>-17.7692 0.0000 72.0000</r>
                            <r>-17.6336 0.0000 72.0000</r>
                            <r>-17.4979 0.0000 72.0000</r>
                            <r>-17.3622 0.0000 72.0000</r>
                            <r>-17.2266 0.0000 72.0000</r>
                            <r>-17.0909 19.6163 74.6610</r>
                            <r>-16.9553 20.8591 77.4944</r>
                            <r>-16.8196 23.3877 80.6758</r>
                            <r>-16.6840 2.3858 81.0000</r>
                            <r>-16.5483 0.0000 81.0000</r>
                            <r>-16.4127 0.0000 81.0000</r>
                            <r>-16.2770 0.0000 81.0000</r>
                            <r>-16.1414 0.0000 81.0000</r>
                            <r>-16.0057 0.0000 81.0000</r>
                            <r>-15.8701 0.0000 81.0000</r>
                            <r>-15.7344 0.0000 81.0000</r>
                            <r>-15.5987 0.0000 81.0000</r>
                            <r>-15.4631 0.0000 81.0000</r>
                            <r>-15.3274 0.0000 81.0000</r>
                            <r>-15.1918 0.0000 81.0000</r>
                            <r>-15.0561 0.0000 81.0000</r>
                            <r>-14.9205 0.0000 81.0000</r>
                            <r>-14.7848 0.0000 81.0000</r>
                            <r>-14.6492 0.0000 81.0000</r>
                            <r>-14.5135 0.0000 81.0000</r>
                            <r>-14.3779 0.0000 81.0000</r>
                            <r>-14.2422 0.0000 81.0000</r>
                            <r>-14.1066 0.0000 81.0000</r>
                            <r>-13.9709 0.0000 81.0000</r>
                            <r>-13.8352 0.0000 81.0000</r>
                            <r>-13.6996 0.0000 81.0000</r>
                            <r>-13.5639 0.0000 81.0000</r>
                            <r>-13.4283 0.0000 81.0000</r>
                            <r>-13.2926 0.0000 81.0000</r>
                            <r>-13.1570 0.0000 81.0000</r>
                            <r>-13.0213 0.0000 81.0000</r>
                            <r>-12.8857 0.0000 81.0000</r>
                            <r>-12.7500 0.0000 81.0000</r>
                            <r>-12.6144 0.0000 81.0000</r>
                            <r>-12.4787 0.0000 81.0000</r>
                            <r>-12.3431 0.0000 81.0000</r>
                            <r>-12.2074 0.0000 81.0000</r>
                            <r>-12.0717 0.0000 81.0000</r>
                            <r>-11.9361 0.0000 81.0000</r>
                            <r>-11.8004 0.0000 81.0000</r>
                            <r>-11.6648 0.0000 81.0000</r>
                            <r>-11.5291 0.0000 81.0000</r>
                            <r>-11.3935 0.0000 81.0000</r>
                            <r>-11.2578 0.0000 81.0000</r>
                            <r>-11.1222 0.0000 81.0000</r>
                            <r>-10.9865 0.0000 81.0000</r>
                            <r>-10.8509 0.0000 81.0000</r>
                            <r>-10.7152 0.0000 81.0000</r>
                            <r>-10.5796 0.0000 81.0000</r>
                            <r>-10.4439 0.0000 81.0000</r>
                            <r>-10.3082 0.0000 81.0000</r>
                            <r>-10.1726 0.0000 81.0000</r>
                            <r>-10.0369 0.0000 81.0000</r>
                            <r>-9.9013 0.0000 81.0000</r>
                            <r>-9.7656 0.0000 81.0000</r>
                            <r>-9.6300 0.0000 81.0000</r>
                            <r>-9.4943 0.0000 81.0000</r>
                            <r>-9.3587 0.0000 81.0000</r>
                            <r>-9.2230 2.0344 81.2760</r>
                            <r>-9.0874 5.2915 82.0000</r>
                            <r>-8.9517 0.0072 82.0010</r>
                            <r>-8.8161 8.6802 83.1785</r>
                            <r>-8.6804 6.5668 84.0715</r>
                            <r>-8.5447 22.5912 87.1361</r>
                            <r>-8.4091 16.9211 89.4376</r>
                            <r>-8.2734 16.6061 91.7033</r>
                            <r>-8.1378 22.5216 94.7607</r>
                            <r>-8.0021 12.2604 96.4253</r>
                            <r>-7.8665 13.7279 98.2876</r>
                            <r>-7.7308 12.3749 99.9670</r>
                            <r>-7.5952 12.9043 101.7216</r>
                            <r>-7.4595 12.6742 103.4493</r>
                            <r>-7.3239 8.6438 104.6223</r>
                            <r>-7.1882 11.9274 106.2443</r>
                            <r>-7.0526 16.2354 108.4509</r>
                            <r>-6.9169 22.5523 111.5116</r>
                            <r>-6.7812 16.9381 113.8181</r>
                            <r>-6.6456 22.3669 116.8523</r>
                            <r>-6.5099 30.8579 121.0492</r>
                            <r>-6.3743 21.7454 124.0064</r>
                            <r>-6.2386 24.3259 127.3148</r>
                            <r>-6.1030 17.8768 129.7457</r>
                            <r>-5.9673 21.0611 132.6080</r>
                            <r>-5.8317 37.1687 137.6676</r>
                            <r>-5.6960 28.3672 141.5285</r>
                            <r>-5.5604 28.9085 145.4544</r>
                            <r>-5.4247 27.5154 149.1933</r>
                            <r>-5.2891 10.3578 150.6003</r>
                            <r>-5.1534 8.7635 151.8000</r>
                            <r>-5.0177 6.5225 152.6848</r>
                            <r>-4.8821 9.6530 153.9969</r>
                            <r>-4.7464 1.6396 154.2199</r>
                            <r>-4.6108 2.3154 154.5340</r>
                            <r>-4.4751 13.4669 156.3608</r>
                            <r>-4.3395 24.0564 159.6246</r>
                            <r>-4.2038 17.9360 162.0605</r>
                            <r>-4.0682 14.2971 164.0000</r>
                            <r>-3.9325 0.0000 164.0000</r>
                            <r>-3.7969 0.0000 164.0000</r>
                            <r>-3.6612 0.0000 164.0000</r>
                            <r>-3.5256 0.0000 164.0000</r>
                            <r>-3.3899 14.1176 165.9151</r>
                            <r>-3.2542 7.9347 167.0000</r>
                            <r>-3.1186 0.4852 167.0658</r>
                            <r>-2.9829 19.8693 169.7612</r>
                            <r>-2.8473 11.6917 171.3575</r>
                            <r>-2.7116 15.8592 173.5105</r>
                            <r>-2.5760 3.2724 173.9548</r>
                            <r>-2.4403 3.0100 174.3691</r>
                            <r>-2.3047 5.8020 175.1561</r>
                            <r>-2.1690 0.0000 175.1600</r>
                            <r>-2.0334 2.2722 175.4682</r>
                            <r>-1.8977 15.2947 177.5430</r>
                            <r>-1.7621 19.0241 180.1328</r>
                            <r>-1.6264 12.0562 181.7697</r>
                            <r>-1.4907 13.5304 183.6052</r>
                            <r>-1.3551 8.2219 184.7238</r>
                            <r>-1.2194 1.7313 184.9600</r>
                            <r>-1.0838 3.9109 185.4905</r>
                            <r>-0.9481 5.8285 186.2813</r>
                            <r>-0.8125 3.5288 186.7600</r>
                            <r>-0.6768 2.6476 187.1192</r>
                            <r>-0.5412 2.6601 187.4800</r>
                            <r>-0.4055 0.2397 187.5125</r>
                            <r>-0.2699 5.3227 188.2346</r>
                            <r>-0.1342 3.3214 188.6906</r>
                            <r>0.0014 0.2170 188.7200</r>
                            <r>0.1371 1.7909 188.9629</r>
                            <r>0.2727 8.9171 190.1727</r>
                            <r>0.4084 9.5567 191.4695</r>
                            <r>0.5441 3.8082 191.9966</r>
                            <r>0.6797 9.2255 193.2524</r>
                            <r>0.8154 19.8209 195.9515</r>
                            <r>0.9510 19.5463 198.6123</r>
                            <r>1.0867 30.3054 202.7256</r>
                            <r>1.2223 23.3373 205.8929</r>
                            <r>1.3580 21.8888 208.8711</r>
                            <r>1.4936 14.1549 210.8006</r>
                            <r>1.6293 19.1271 213.3954</r>
                            <r>1.7649 35.5394 218.2176</r>
                            <r>1.9006 43.1724 224.0805</r>
                            <r>2.0362 20.7749 226.9044</r>
                            <r>2.1719 21.9167 229.8787</r>
                            <r>2.3076 16.1567 232.0755</r>
                            <r>2.4432 18.4532 234.5857</r>
                            <r>2.5789 17.0972 236.9186</r>
                            <r>2.7145 18.1812 239.3899</r>
                            <r>2.8502 4.4785 240.0000</r>
                            <r>2.9858 0.0000 240.0000</r>
                            <r>3.1215 0.0000 240.0000</r>
                            <r>3.2571 0.0000 240.0000</r>
                            <r>3.3928 0.0000 240.0000</r>
                            <r>3.5284 0.0000 240.0000</r>
                            <r>3.6641 0.0000 240.0000</r>
                            <r>3.7997 0.0000 240.0000</r>
                            <r>3.9354 0.0000 240.0000</r>
                            <r>4.0711 0.0000 240.0000</r>
                            <r>4.2067 0.0000 240.0000</r>
                            <r>4.3424 0.0000 240.0000</r>
                            <r>4.4780 0.0000 240.0000</r>
                            <r>4.6137 0.0000 240.0000</r>
                        </set>
                    </set>
                </array>
            </total>
        </dos>
    </calculation>
    <structure name="finalpos">
        <crystal>
            <varray name="basis">
                <v>8.97264352 0.00000404 0.00000000</v>
                <v>-4.48631826 7.77055279 0.00000000</v>
                <v>-0.00000000 0.00000000 21.81413279</v>
            </varray>
            <i name="volume">1520.93408888</i>
            <varray name="rec_basis">
                <v>0.11144985 0.06434542 0.00000000</v>
                <v>-0.00000006 0.12869094 -0.00000000</v>
                <v>0.00000000 0.00000000 0.04584184</v>
            </varray>
        </crystal>
        <varray name="positions">
            <v>0.00034828 0.00051949 0.50019888</v>
            <v>0.00000925 0.33333732 0.50015115</v>
            <v>0.00034945 0.66649749 0.50019886</v>
            <v>0.33334082 0.00000310 0.50009339</v>
            <v>0.33283547 0.33300602 0.50019646</v>
            <v>0.33283486 0.66649825 0.50019662</v>
            <v>0.66685963 0.00051822 0.50019781</v>
            <v>0.66685988 0.33300978 0.50019751</v>
            <v>0.66668385 0.66667859 0.49936600</v>
            <v>0.11097825 0.22238330 0.56441491</v>
            <v>0.11097749 0.55525949 0.56441483</v>
            <v>0.11078227 0.88872495 0.56457238</v>
            <v>0.44462449 0.22254586 0.56456761</v>
            <v>0.44480964 0.55573737 0.56409103</v>
            <v>0.44462634 0.88874484 0.56456780</v>
            <v>0.77807432 0.22237017 0.56441630</v>
            <v>0.77761223 0.55575328 0.56409362</v>
            <v>0.77761061 0.88852101 0.56409354</v>
            <v>0.22266587 0.11069879 0.43598650</v>
            <v>0.22228076 0.44447699 0.43619118</v>
            <v>0.22266400 0.77863404 0.43598475</v>
            <v>0.55471343 0.11069258 0.43598995</v>
            <v>0.55358897 0.44046883 0.43701599</v>
            <v>0.55358717 0.77979568 0.43701068</v>
            <v>0.88887999 0.11106146 0.43618706</v>
            <v>0.88888192 0.44448910 0.43618963</v>
            <v>0.89289756 0.77978546 0.43700637</v>
            <v>0.00000373 0.00055316 0.61792626</v>
            <v>0.00000368 0.33333403 0.61788783</v>
            <v>0.00000449 0.66611965 0.61792599</v>
            <v>0.33334109 0.00000301 0.61813351</v>
            <v>0.33281608 0.33335007 0.61792253</v>
            <v>0.33281512 0.66613234 0.61792239</v>
            <v>0.66722151 0.00053682 0.61792377</v>
            <v>0.66721908 0.33335130 0.61792366</v>
            <v>0.66666839 0.66666794 0.61765073</v>
            <v>0.99900491 0.99931325 0.38191606</v>
            <v>0.00001339 0.33334113 0.38227782</v>
            <v>0.99899156 0.66634780 0.38191180</v>
            <v>0.33335125 0.00001022 0.38182196</v>
            <v>0.33406656 0.33439661 0.38190832</v>
            <v>0.33406035 0.66633695 0.38190855</v>
            <v>0.66699730 -0.00068152 0.38191775</v>
            <v>0.66700771 0.33436550 0.38191312</v>
            <v>0.66673525 0.66672500 0.37907130</v>
            <v>0.66561175 0.66554526 0.29654609</v>
        </varray>
    </structure>
</modeling>
