unknown system                          
           1
     8.986353    0.000000    0.000000
    -4.493177    7.782430    0.000000
    -0.000000    0.000000   21.814133
   N    Nb   O    O    Co
   9  18  17   1   1
Direct configuration=     1
   0.99999998  0.00000003  0.49999884
   0.99999992  0.33333329  0.49999884
   0.99999999  0.66666663  0.49999885
   0.33333331  0.99999998  0.49999885
   0.33333324  0.33333327  0.49999884
   0.33333327  0.66666664  0.49999884
   0.66666675  0.00000009  0.49999884
   0.66666675  0.33333331  0.49999885
   0.66666673  0.66666671  0.49999884
   0.11111143  0.22222283  0.56396875
   0.11111134  0.55555588  0.56396876
   0.11111107  0.88888923  0.56396877
   0.44444378  0.22222256  0.56396887
   0.44444383  0.55555553  0.56396879
   0.44444377  0.88888862  0.56396887
   0.77777866  0.22222306  0.56396894
   0.77777839  0.55555638  0.56396886
   0.77777843  0.88888932  0.56396887
   0.22222170  0.11111072  0.43603192
   0.22222195  0.44444392  0.43603199
   0.22222163  0.77777695  0.43603191
   0.55555516  0.11111065  0.43603176
   0.55555507  0.44444414  0.43603186
   0.55555505  0.77777684  0.43603184
   0.88888976  0.11111115  0.43603186
   0.88888968  0.44444460  0.43603188
   0.88888939  0.77777764  0.43603190
   0.99999965  0.99999979  0.61734560
   0.99999930  0.33333276  0.61734560
   0.99999975  0.66666633  0.61734561
   0.33333412  0.00000017  0.61734541
   0.33333383  0.33333323  0.61734554
   0.33333388  0.66666704  0.61734550
   0.66666628  0.99999994  0.61734517
   0.66666625  0.33333262  0.61734521
   0.66666637  0.66666647  0.61734532
   0.99999934  0.99999980  0.38265492
   0.99999905  0.33333299  0.38265488
   0.99999944  0.66666656  0.38265492
   0.33333408  0.00000047  0.38265507
   0.33333390  0.33333352  0.38265490
   0.33333395  0.66666746  0.38265494
   0.66666684  0.00000047  0.38265529
   0.66666686  0.33333328  0.38265526
   0.66666707  0.66666710  0.38265515
   0.66631000  0.66596000  0.30000000
unknown system                          
           1
     9.025844    0.000456    0.000000
    -4.512527    7.816328    0.000000
    -0.000000    0.000000   21.814133
   N    Nb   O    O    Co
   9  18  17   1   1
Direct configuration=     2
   0.99997183  0.00000019  0.49997762
   0.00001227  0.33334495  0.49999297
   0.99996819  0.66662899  0.49997928
   0.33337685  0.00002378  0.49997553
   0.33335349  0.33337666  0.49997941
   0.33334916  0.66663637  0.49997856
   0.66667759  0.00000179  0.49997784
   0.66668149  0.33334397  0.49998011
   0.66665693  0.66665952  0.49993944
   0.11109973  0.22228248  0.56398906
   0.11108602  0.55547494  0.56398587
   0.11107563  0.88887947  0.56401641
   0.44450965  0.22228348  0.56399579
   0.44443968  0.55555335  0.56397735
   0.44451693  0.88890320  0.56400028
   0.77781869  0.22225170  0.56398295
   0.77776133  0.55552736  0.56398958
   0.77775588  0.88889184  0.56399377
   0.22227517  0.11108652  0.43611843
   0.22221748  0.44444191  0.43615815
   0.22227172  0.77785410  0.43611715
   0.55547389  0.11107216  0.43613461
   0.55524840  0.44380046  0.43630696
   0.55526713  0.77811818  0.43632356
   0.88890511  0.11112784  0.43613758
   0.88890985  0.44443923  0.43613989
   0.88957526  0.77813109  0.43631489
   0.00002287  0.00001775  0.61735122
   0.99999591  0.33333168  0.61735085
   0.00002526  0.66667083  0.61735199
   0.33333688 -0.00000149  0.61734650
   0.33332643  0.33331799  0.61735564
   0.33332179  0.66667215  0.61735603
   0.66667195  0.00002213  0.61735281
   0.66667012  0.33331600  0.61735298
   0.66668041  0.66667164  0.61735054
   0.99993478  0.99995417  0.38254856
   0.00000631  0.33333671  0.38258352
   0.99992401  0.66663719  0.38254637
   0.33335736  0.00001370  0.38259207
   0.33340166  0.33343432  0.38252957
   0.33341522  0.66663699  0.38252238
   0.66667833 -0.00005668  0.38253374
   0.66668973  0.33340118  0.38253768
   0.66667808  0.66667302  0.38227182
   0.66591754  0.66577518  0.29970295
unknown system                          
           1
     9.025080    0.000447    0.000000
    -4.512153    7.815672    0.000000
    -0.000000    0.000000   21.814133
   N    Nb   O    O    Co
   9  18  17   1   1
Direct configuration=     3
   0.99997237  0.00000019  0.49997803
   0.00001203  0.33334473  0.49999308
   0.99996880  0.66662972  0.49997966
   0.33337601  0.00002332  0.49997598
   0.33335310  0.33337583  0.49997978
   0.33334885  0.66663695  0.49997895
   0.66667738  0.00000175  0.49997824
   0.66668120  0.33334376  0.49998048
   0.66665712  0.66665965  0.49994059
   0.11109996  0.22228133  0.56398867
   0.11108651  0.55547650  0.56398554
   0.11107631  0.88887966  0.56401549
   0.44450838  0.22228231  0.56399527
   0.44443976  0.55555339  0.56397718
   0.44451552  0.88890292  0.56399967
   0.77781792  0.22225115  0.56398267
   0.77776166  0.55552792  0.56398918
   0.77775632  0.88889179  0.56399329
   0.22227414  0.11108699  0.43611676
   0.22221757  0.44444195  0.43615571
   0.22227075  0.77785262  0.43611550
   0.55547545  0.11107291  0.43613262
   0.55525431  0.44381286  0.43630164
   0.55527268  0.77811160  0.43631792
   0.88890481  0.11112751  0.43613553
   0.88890946  0.44443933  0.43613780
   0.88956205  0.77812428  0.43630942
   0.00002242  0.00001741  0.61735111
   0.99999598  0.33333170  0.61735074
   0.00002477  0.66667075  0.61735187
   0.33333683 -0.00000145  0.61734648
   0.33332657  0.33331828  0.61735545
   0.33332202  0.66667205  0.61735583
   0.66667184  0.00002171  0.61735266
   0.66667005  0.33331632  0.61735283
   0.66668014  0.66667154  0.61735044
   0.99993602  0.99995504  0.38255062
   0.00000617  0.33333664  0.38258490
   0.99992546  0.66663776  0.38254847
   0.33335691  0.00001345  0.38259329
   0.33340036  0.33343237  0.38253199
   0.33341365  0.66663758  0.38252495
   0.66667811 -0.00005558  0.38253609
   0.66668929  0.33339988  0.38253995
   0.66667787  0.66667291  0.38227924
   0.66592510  0.66577874  0.29970870
unknown system                          
           1
     9.021728    0.000408    0.000000
    -4.510510    7.812795    0.000000
    -0.000000    0.000000   21.814133
   N    Nb   O    O    Co
   9  18  17   1   1
Direct configuration=     4
   0.99997475  0.00000018  0.49997984
   0.00001099  0.33334374  0.49999358
   0.99997149  0.66663290  0.49998132
   0.33337233  0.00002131  0.49997796
   0.33335138  0.33337216  0.49998143
   0.33334751  0.66663951  0.49998068
   0.66667647  0.00000161  0.49998003
   0.66667996  0.33334286  0.49998207
   0.66665795  0.66666026  0.49994563
   0.11110095  0.22227629  0.56398695
   0.11108865  0.55548334  0.56398409
   0.11107931  0.88888048  0.56401145
   0.44450282  0.22227716  0.56399298
   0.44444011  0.55555358  0.56397646
   0.44450934  0.88890169  0.56399700
   0.77781454  0.22224873  0.56398149
   0.77776310  0.55553037  0.56398742
   0.77775822  0.88889158  0.56399117
   0.22226962  0.11108904  0.43610941
   0.22221794  0.44444212  0.43614500
   0.22226652  0.77784610  0.43610826
   0.55548232  0.11107616  0.43612389
   0.55528022  0.44386726  0.43627829
   0.55529701  0.77808275  0.43629316
   0.88890351  0.11112610  0.43612656
   0.88890775  0.44443979  0.43612863
   0.88950408  0.77809441  0.43628540
   0.00002046  0.00001589  0.61735063
   0.99999626  0.33333179  0.61735030
   0.00002261  0.66667037  0.61735133
   0.33333660 -0.00000131  0.61734639
   0.33332719  0.33331957  0.61735459
   0.33332304  0.66667162  0.61735493
   0.66667136  0.00001983  0.61735202
   0.66666972  0.33331772  0.61735217
   0.66667895  0.66667110  0.61735000
   0.99994148  0.99995890  0.38255964
   0.00000556  0.33333632  0.38259096
   0.99993184  0.66664024  0.38255768
   0.33335494  0.00001233  0.38259864
   0.33339463  0.33342385  0.38254263
   0.33340679  0.66664015  0.38253620
   0.66667714 -0.00005075  0.38254641
   0.66668736  0.33339414  0.38254993
   0.66667694  0.66667241  0.38231178
   0.66595827  0.66579436  0.29973391
unknown system                          
           1
     9.007677    0.000246    0.000000
    -4.503625    7.800734    0.000000
    -0.000000    0.000000   21.814133
   N    Nb   O    O    Co
   9  18  17   1   1
Direct configuration=     5
   0.99998473  0.00000012  0.49998739
   0.00000661  0.33333961  0.49999567
   0.99998276  0.66664624  0.49998828
   0.33335690  0.00001288  0.49998625
   0.33334421  0.33335678  0.49998835
   0.33334188  0.66665024  0.49998789
   0.66667262  0.00000101  0.49998750
   0.66667474  0.33333908  0.49998873
   0.66666142  0.66666281  0.49996677
   0.11110509  0.22225515  0.56397972
   0.11109762  0.55551203  0.56397800
   0.11109187  0.88888394  0.56399449
   0.44447947  0.22225557  0.56398340
   0.44444158  0.55555435  0.56397341
   0.44448341  0.88889652  0.56398583
   0.77780035  0.22223858  0.56397650
   0.77776914  0.55554066  0.56398005
   0.77776621  0.88889068  0.56398232
   0.22225067  0.11109761  0.43607863
   0.22221953  0.44444283  0.43610011
   0.22224877  0.77781875  0.43607793
   0.55551112  0.11108980  0.43608730
   0.55538890  0.44409539  0.43618041
   0.55539905  0.77796177  0.43618936
   0.88889808  0.11112019  0.43608894
   0.88890061  0.44444169  0.43609020
   0.88926101  0.77796916  0.43618471
   0.00001223  0.00000952  0.61734863
   0.99999746  0.33333218  0.61734843
   0.00001357  0.66666877  0.61734905
   0.33333562 -0.00000073  0.61734600
   0.33332982  0.33332497  0.61735099
   0.33332733  0.66666981  0.61735119
   0.66666935  0.00001196  0.61734930
   0.66666835  0.33332361  0.61734940
   0.66667398  0.66666927  0.61734814
   0.99996436  0.99997507  0.38259749
   0.00000299  0.33333501  0.38261635
   0.99995857  0.66665065  0.38259631
   0.33334669  0.00000764  0.38262105
   0.33337061  0.33338813  0.38258722
   0.33337798  0.66665095  0.38258336
   0.66667307 -0.00003050  0.38258966
   0.66667925  0.33337007  0.38259177
   0.66667304  0.66667031  0.38244817
   0.66609735  0.66585986  0.29983960
unknown system                          
           1
     9.006457    0.000249    0.000000
    -4.503013    7.799659    0.000000
    -0.000000    0.000000   21.814133
   N    Nb   O    O    Co
   9  18  17   1   1
Direct configuration=     6
   0.99995888 -0.00001051  0.49997328
   0.00000776  0.33333988  0.49999388
   0.99995730  0.66663228  0.49997410
   0.33336004  0.00001382  0.49996964
   0.33335682  0.33338370  0.49997396
   0.33335525  0.66663701  0.49997340
   0.66668543 -0.00001088  0.49997313
   0.66668764  0.33336414  0.49997428
   0.66666129  0.66666247  0.49990699
   0.11109870  0.22226524  0.56399440
   0.11109256  0.55549873  0.56399289
   0.11105095  0.88886014  0.56400909
   0.44450577  0.22229621  0.56399682
   0.44448576  0.55557440  0.56397513
   0.44450310  0.88888275  0.56399877
   0.77781150  0.22224414  0.56399094
   0.77774215  0.55556690  0.56398161
   0.77774528  0.88884430  0.56398444
   0.22229715  0.11105302  0.43612110
   0.22222343  0.44444379  0.43615569
   0.22229517  0.77790992  0.43612061
   0.55541988  0.11104529  0.43613079
   0.55506922  0.44344574  0.43640715
   0.55507544  0.77828786  0.43641341
   0.88889875  0.11111692  0.43614321
   0.88889899  0.44444515  0.43614338
   0.88991283  0.77829460  0.43641217
   0.00003002  0.00004614  0.61735122
   0.99999704  0.33333194  0.61734467
   0.00003216  0.66664989  0.61735158
   0.33333531 -0.00000037  0.61735485
   0.33329538  0.33330812  0.61735358
   0.33329582  0.66665313  0.61735348
   0.66668722  0.00004486  0.61735190
   0.66668801  0.33330661  0.61735223
   0.66667496  0.66666986  0.61734952
   0.99990475  0.99994905  0.38252268
   0.00000357  0.33333582  0.38257575
   0.99990079  0.66661711  0.38252205
   0.33334917  0.00000819  0.38258215
   0.33339870  0.33345180  0.38251106
   0.33340490  0.66661718  0.38250850
   0.66670494 -0.00005547  0.38251574
   0.66671270  0.33342676  0.38251702
   0.66668179  0.66666924  0.38212046
   0.66605571  0.66584313  0.29977759
unknown system                          
           1
     9.003274    0.000257    0.000000
    -4.501414    7.796855    0.000000
    -0.000000    0.000000   21.814133
   N    Nb   O    O    Co
   9  18  17   1   1
Direct configuration=     7
   0.99989142 -0.00003825  0.49993648
   0.00001077  0.33334059  0.49998920
   0.99989086  0.66659584  0.49993710
   0.33336824  0.00001628  0.49992629
   0.33338973  0.33345399  0.49993642
   0.33339017  0.66660248  0.49993557
   0.66671887 -0.00004192  0.49993562
   0.66672131  0.33342955  0.49993657
   0.66666093  0.66666158  0.49975098
   0.11108202  0.22229157  0.56403272
   0.11107935  0.55546403  0.56403175
   0.11094415  0.88879801  0.56404717
   0.44457441  0.22240229  0.56403182
   0.44460107  0.55562675  0.56397960
   0.44455448  0.88884681  0.56403256
   0.77784060  0.22225867  0.56402862
   0.77767170  0.55563541  0.56398569
   0.77769065  0.88872322  0.56398998
   0.22241847  0.11093663  0.43623194
   0.22223363  0.44444630  0.43630073
   0.22241630  0.77814786  0.43623200
   0.55518174  0.11092911  0.43624429
   0.55423480  0.44175009  0.43699888
   0.55423077  0.77913900  0.43699814
   0.88890052  0.11110836  0.43628483
   0.88889478  0.44445416  0.43628215
   0.89161416  0.77914404  0.43700581
   0.00007644  0.00014171  0.61735797
   0.99999594  0.33333131  0.61733485
   0.00008066  0.66660060  0.61735816
   0.33333451  0.00000057  0.61737793
   0.33320549  0.33326413  0.61736033
   0.33321358  0.66660960  0.61735947
   0.66673386  0.00013072  0.61735869
   0.66673932  0.33326224  0.61735961
   0.66667751  0.66667139  0.61735311
   0.99974916  0.99988111  0.38232744
   0.00000509  0.33333796  0.38246981
   0.99974997  0.66652956  0.38232824
   0.33335562  0.00000962  0.38248061
   0.33347200  0.33361799  0.38231229
   0.33347514  0.66652904  0.38231312
   0.66678812 -0.00012067  0.38232283
   0.66680001  0.33357473  0.38232193
   0.66670462  0.66666646  0.38126521
   0.66594701  0.66579947  0.29961576
unknown system                          
           1
     8.996906    0.000272    0.000000
    -4.498218    7.791247    0.000000
    -0.000000    0.000000   21.814133
   N    Nb   O    O    Co
   9  18  17   1   1
Direct configuration=     8
   0.99975644 -0.00009374  0.49986287
   0.00001679  0.33334201  0.49997984
   0.99975793  0.66652293  0.49986308
   0.33338465  0.00002120  0.49983959
   0.33345557  0.33359460  0.49986134
   0.33346002  0.66653338  0.49985992
   0.66678576 -0.00010403  0.49986060
   0.66678869  0.33356042  0.49986115
   0.66666023  0.66665980  0.49943896
   0.11104866  0.22234425  0.56410936
   0.11105292  0.55539460  0.56410947
   0.11073049  0.88867372  0.56412334
   0.44471175  0.22261453  0.56410184
   0.44483177  0.55573148  0.56398856
   0.44465729  0.88877489  0.56410012
   0.77789884  0.22228773  0.56410399
   0.77753074  0.55577247  0.56399385
   0.77758134  0.88848098  0.56400106
   0.22266118  0.11070376  0.43645362
   0.22225402  0.44445132  0.43659080
   0.22265863  0.77862392  0.43645477
   0.55470528  0.11069668  0.43647129
   0.55256537  0.43835756  0.43818234
   0.55254085  0.78084190  0.43816758
   0.88890405  0.11109126  0.43656808
   0.88888634  0.44447220  0.43655970
   0.89501803  0.78084354  0.43819309
   0.00016933  0.00033292  0.61737146
   0.99999374  0.33333005  0.61731521
   0.00017771  0.66650200  0.61737132
   0.33333291  0.00000245  0.61742409
   0.33302564  0.33317613  0.61737382
   0.33304904  0.66652251  0.61737145
   0.66682717  0.00030251  0.61737228
   0.66684200  0.33317346  0.61737436
   0.66668263  0.66667446  0.61736029
   0.99943787  0.99974519  0.38193697
   0.00000814  0.33334224  0.38225792
   0.99944823  0.66635441  0.38194064
   0.33336854  0.00001248  0.38227753
   0.33361865  0.33395049  0.38191476
   0.33361569  0.66635270  0.38192237
   0.66695455 -0.00025110  0.38193702
   0.66697469  0.33387077  0.38193175
   0.66675030  0.66666088  0.37955471
   0.66572954  0.66571211  0.29929209
unknown system                          
           1
     9.000999    0.000262    0.000000
    -4.500272    7.794851    0.000000
    -0.000000    0.000000   21.814133
   N    Nb   O    O    Co
   9  18  17   1   1
Direct configuration=     9
   0.99984326 -0.00005805  0.49991018
   0.00001292  0.33334109  0.49998586
   0.99984343  0.66656983  0.49991065
   0.33337409  0.00001803  0.49989532
   0.33341322  0.33350416  0.49990960
   0.33341509  0.66657782  0.49990854
   0.66674273 -0.00006408  0.49990882
   0.66674535  0.33347625  0.49990963
   0.66666068  0.66666095  0.49963951
   0.11107012  0.22231037  0.56406010
   0.11106992  0.55543926  0.56405952
   0.11086792  0.88875366  0.56407438
   0.44462341  0.22247802  0.56405684
   0.44468339  0.55566412  0.56398280
   0.44459116  0.88882115  0.56405670
   0.77786138  0.22226904  0.56405555
   0.77762141  0.55568431  0.56398861
   0.77765165  0.88863679  0.56399394
   0.22250507  0.11085354  0.43631113
   0.22224091  0.44444809  0.43640436
   0.22250276  0.77831771  0.43631158
   0.55501174  0.11084619  0.43632539
   0.55363916  0.44053967  0.43742167
   0.55362781  0.77974657  0.43741592
   0.88890178  0.11110226  0.43638602
   0.88889177  0.44446060  0.43638131
   0.89282864  0.77975041  0.43742997
   0.00010958  0.00020993  0.61736279
   0.99999516  0.33333086  0.61732783
   0.00011529  0.66656542  0.61736286
   0.33333394  0.00000124  0.61739442
   0.33314132  0.33323273  0.61736515
   0.33315487  0.66657853  0.61736375
   0.66676715  0.00019201  0.61736355
   0.66677596  0.33323057  0.61736488
   0.66667934  0.66667249  0.61735567
   0.99963809  0.99983261  0.38218795
   0.00000618  0.33333949  0.38239411
   0.99964231  0.66646707  0.38218977
   0.33336023  0.00001064  0.38240806
   0.33352432  0.33373662  0.38217027
   0.33352529  0.66646613  0.38217353
   0.66684750 -0.00016720  0.38218500
   0.66686234  0.33368035  0.38218254
   0.66672092  0.66666447  0.38065413
   0.66586942  0.66576830  0.29950013
unknown system                          
           1
     8.991846    0.000208    0.000000
    -4.495743    7.786972    0.000000
    -0.000000    0.000000   21.814133
   N    Nb   O    O    Co
   9  18  17   1   1
Direct configuration=    10
   0.99988238  0.00002158  0.49994628
   0.00001118  0.33334019  0.50000395
   0.99988187  0.66652915  0.49994641
   0.33336941  0.00001607  0.49991275
   0.33333497  0.33346506  0.49994454
   0.33333707  0.66653859  0.49994356
   0.66678687  0.00001402  0.49994423
   0.66678992  0.33344224  0.49994483
   0.66666217  0.66666234  0.49961344
   0.11105215  0.22232615  0.56407109
   0.11105483  0.55540674  0.56407078
   0.11086254  0.88875110  0.56410448
   0.44462021  0.22248005  0.56408935
   0.44472486  0.55568525  0.56398959
   0.44458924  0.88881477  0.56408893
   0.77789989  0.22228599  0.56406664
   0.77760544  0.55570922  0.56399369
   0.77763444  0.88859486  0.56399831
   0.22254278  0.11081751  0.43625709
   0.22223690  0.44444676  0.43635363
   0.22254137  0.77839185  0.43625777
   0.55493884  0.11080734  0.43626906
   0.55351910  0.44030529  0.43741518
   0.55350863  0.77986321  0.43740856
   0.88890205  0.11110630  0.43633779
   0.88889457  0.44445867  0.43633392
   0.89305906  0.77986450  0.43742293
   0.00012623  0.00025603  0.61738054
   0.99999407  0.33333075  0.61734237
   0.00013060  0.66653558  0.61738057
   0.33333352  0.00000178  0.61742058
   0.33309670  0.33321604  0.61738198
   0.33311080  0.66655100  0.61738028
   0.66679575  0.00023665  0.61738125
   0.66680535  0.33321561  0.61738279
   0.66667784  0.66667274  0.61737071
   0.99957240  0.99978042  0.38218745
   0.00000737  0.33333989  0.38241574
   0.99957716  0.66645381  0.38218880
   0.33335927  0.00001026  0.38239064
   0.33357719  0.33380422  0.38217108
   0.33357685  0.66645048  0.38217453
   0.66686385 -0.00021792  0.38218565
   0.66687813  0.33374703  0.38218214
   0.66672752  0.66666975  0.38065969
   0.66585665  0.66576104  0.29929467
unknown system                          
           1
     8.975298    0.000110    0.000000
    -4.487554    7.772726    0.000000
    -0.000000    0.000000   21.814133
   N    Nb   O    O    Co
   9  18  17   1   1
Direct configuration=    11
   0.99995318  0.00016568  0.50001153
   0.00000803  0.33333857  0.50003666
   0.99995144  0.66645554  0.50001106
   0.33336092  0.00001250  0.49994426
   0.33319334  0.33339431  0.50000772
   0.33319586  0.66646760  0.50000688
   0.66686675  0.00015535  0.50000825
   0.66687058  0.33338071  0.50000848
   0.66666486  0.66666487  0.49956632
   0.11101964  0.22235471  0.56409096
   0.11102751  0.55534791  0.56409114
   0.11085281  0.88874647  0.56415889
   0.44461443  0.22248372  0.56414814
   0.44479991  0.55572350  0.56400187
   0.44458575  0.88880324  0.56414720
   0.77796958  0.22231668  0.56408668
   0.77757654  0.55575430  0.56400288
   0.77760330  0.88851897  0.56400622
   0.22261104  0.11075230  0.43615940
   0.22222964  0.44444436  0.43626192
   0.22261126  0.77852602  0.43616049
   0.55480692  0.11073704  0.43616723
   0.55330184  0.43988112  0.43740344
   0.55329295  0.78007429  0.43739525
   0.88890255  0.11111360  0.43625060
   0.88889965  0.44445517  0.43624824
   0.89347603  0.78007099  0.43741022
   0.00015636  0.00033946  0.61741262
   0.99999212  0.33333055  0.61736865
   0.00015830  0.66648157  0.61741258
   0.33333276  0.00000276  0.61746787
   0.33301594  0.33318582  0.61741240
   0.33303105  0.66650118  0.61741016
   0.66684751  0.00031743  0.61741327
   0.66685855  0.33318855  0.61741518
   0.66667512  0.66667320  0.61739789
   0.99945351  0.99968598  0.38218656
   0.00000953  0.33334063  0.38245484
   0.99945926  0.66642982  0.38218705
   0.33335754  0.00000957  0.38235915
   0.33367287  0.33392656  0.38217254
   0.33367016  0.66642216  0.38217634
   0.66689343 -0.00030970  0.38218682
   0.66690672  0.33386770  0.38218143
   0.66673945  0.66667932  0.38066973
   0.66583353  0.66574791  0.29892324
unknown system                          
           1
     8.975436    0.000068    0.000000
    -4.487659    7.772888    0.000000
    -0.000000    0.000000   21.814133
   N    Nb   O    O    Co
   9  18  17   1   1
Direct configuration=    12
   0.00002872  0.00028078  0.50004777
   0.00000664  0.33333789  0.50004102
   0.00002635  0.66641537  0.50004722
   0.33335531  0.00001034  0.49996135
   0.33307892  0.33331904  0.50004334
   0.33308172  0.66642806  0.50004259
   0.66691083  0.00026888  0.50004408
   0.66691506  0.33331065  0.50004422
   0.66666598  0.66666635  0.49955444
   0.11100141  0.22236870  0.56409200
   0.11101156  0.55531573  0.56409228
   0.11085122  0.88874716  0.56418122
   0.44460862  0.22248209  0.56417308
   0.44481046  0.55572970  0.56399510
   0.44458316  0.88879791  0.56417188
   0.77800685  0.22233328  0.56408856
   0.77757776  0.55576109  0.56399539
   0.77760144  0.88850986  0.56399771
   0.22262290  0.11073942  0.43613302
   0.22222363  0.44444229  0.43623799
   0.22262409  0.77855102  0.43613432
   0.55478341  0.11072347  0.43613905
   0.55331824  0.43991989  0.43736564
   0.55331107  0.78005425  0.43735773
   0.88890423  0.11111879  0.43622903
   0.88890323  0.44445258  0.43622762
   0.89343512  0.78004986  0.43737108
   0.00016744  0.00038583  0.61747215
   0.99999144  0.33333077  0.61742614
   0.00016742  0.66644555  0.61747212
   0.33333255  0.00000326  0.61754202
   0.33297093  0.33317477  0.61747122
   0.33298579  0.66646724  0.61746897
   0.66688257  0.00036311  0.61747236
   0.66689407  0.33317973  0.61747426
   0.66667316  0.66667328  0.61745041
   0.99938631  0.99961911  0.38215032
   0.00001044  0.33334074  0.38243070
   0.99939194  0.66642960  0.38215000
   0.33335531  0.00000888  0.38227690
   0.33373995  0.33399468  0.38213738
   0.33373597  0.66641943  0.38214072
   0.66689782 -0.00037511  0.38215058
   0.66691007  0.33393750  0.38214488
   0.66674353  0.66668555  0.38063923
   0.66582535  0.66574163  0.29872117
unknown system                          
           1
     8.975706   -0.000016    0.000000
    -4.487867    7.773205    0.000000
    -0.000000    0.000000   21.814133
   N    Nb   O    O    Co
   9  18  17   1   1
Direct configuration=    13
   0.00017688  0.00050654  0.50011886
   0.00000391  0.33333656  0.50004956
   0.00017329  0.66633658  0.50011815
   0.33334431  0.00000611  0.49999487
   0.33285451  0.33317142  0.50011320
   0.33285785  0.66635052  0.50011263
   0.66699729  0.00049153  0.50011437
   0.66700232  0.33317325  0.50011432
   0.66666820  0.66666924  0.49953114
   0.11096567  0.22239614  0.56409403
   0.11098029  0.55525262  0.56409451
   0.11084810  0.88874853  0.56422503
   0.44459722  0.22247891  0.56422200
   0.44483116  0.55574184  0.56398181
   0.44457810  0.88878746  0.56422029
   0.77807996  0.22236583  0.56409223
   0.77758014  0.55577442  0.56398070
   0.77759777  0.88849199  0.56398103
   0.22264617  0.11071416  0.43608127
   0.22221185  0.44443825  0.43619104
   0.22264926  0.77860003  0.43608300
   0.55473728  0.11069686  0.43608378
   0.55335040  0.43999591  0.43729150
   0.55334662  0.78001496  0.43728416
   0.88890754  0.11112898  0.43618670
   0.88891025  0.44444749  0.43618717
   0.89335488  0.78000843  0.43729433
   0.00018916  0.00047677  0.61758891
   0.99999010  0.33333119  0.61753890
   0.00018530  0.66637489  0.61758891
   0.33333216  0.00000424  0.61768743
   0.33288264  0.33315308  0.61758657
   0.33289703  0.66640066  0.61758431
   0.66695134  0.00045268  0.61758826
   0.66696372  0.33316242  0.61759013
   0.66666931  0.66667346  0.61755343
   0.99925453  0.99948798  0.38207925
   0.00001222  0.33334095  0.38238337
   0.99925991  0.66642916  0.38207732
   0.33335095  0.00000753  0.38211558
   0.33387152  0.33412828  0.38206843
   0.33386502  0.66641407  0.38207085
   0.66690643 -0.00050340  0.38207950
   0.66691664  0.33407440  0.38207319
   0.66675153  0.66669777  0.38057942
   0.66580929  0.66572932  0.29832485
unknown system                          
           1
     8.976247   -0.000183    0.000000
    -4.488282    7.773839    0.000000
    -0.000000    0.000000   21.814133
   N    Nb   O    O    Co
   9  18  17   1   1
Direct configuration=    14
   0.00047319  0.00095804  0.50026102
  -0.00000154  0.33333390  0.50006665
   0.00046715  0.66617901  0.50025999
   0.33332231 -0.00000237  0.50006190
   0.33240568  0.33287618  0.50025292
   0.33241013  0.66619543  0.50025272
   0.66717019  0.00093681  0.50025494
   0.66717682  0.33289846  0.50025453
   0.66667262  0.66667504  0.49948453
   0.11089418  0.22245100  0.56409809
   0.11091774  0.55512640  0.56409898
   0.11084187  0.88875126  0.56431263
   0.44457443  0.22247254  0.56431983
   0.44487255  0.55576613  0.56395523
   0.44456796  0.88876656  0.56431711
   0.77822617  0.22243092  0.56409957
   0.77758492  0.55580107  0.56395134
   0.77759044  0.88845624  0.56394767
   0.22269271  0.11066364  0.43597778
   0.22218828  0.44443015  0.43609715
   0.22269960  0.77869806  0.43598035
   0.55464504  0.11064362  0.43597323
   0.55341473  0.44014796  0.43714321
   0.55341772  0.77993637  0.43713700
   0.88891416  0.11114936  0.43610205
   0.88892429  0.44443733  0.43610626
   0.89319440  0.77992558  0.43714081
   0.00023259  0.00065865  0.61782242
   0.99998743  0.33333203  0.61776441
   0.00022106  0.66623360  0.61782248
   0.33333136  0.00000619  0.61797826
   0.33270608  0.33310972  0.61781728
   0.33271952  0.66626752  0.61781498
   0.66708887  0.00063183  0.61782006
   0.66710302  0.33312781  0.61782188
   0.66666160  0.66667380  0.61775947
   0.99899098  0.99922571  0.38193711
   0.00001577  0.33334137  0.38228869
   0.99899585  0.66642830  0.38193198
   0.33334222  0.00000483  0.38179293
   0.33413466  0.33439546  0.38193052
   0.33412312  0.66640336  0.38193112
   0.66692365 -0.00075998  0.38193735
   0.66692978  0.33434820  0.38192982
   0.66676753  0.66672221  0.38045979
   0.66577717  0.66570469  0.29753220
unknown system                          
           1
     8.976005   -0.000108    0.000000
    -4.488096    7.773555    0.000000
    -0.000000    0.000000   21.814133
   N    Nb   O    O    Co
   9  18  17   1   1
Direct configuration=    15
   0.00034051  0.00075588  0.50019736
   0.00000090  0.33333509  0.50005900
   0.00033557  0.66624956  0.50019648
   0.33333216  0.00000143  0.50003189
   0.33260665  0.33300838  0.50019035
   0.33261060  0.66626488  0.50018999
   0.66709277  0.00073743  0.50019199
   0.66709869  0.33302149  0.50019175
   0.66667064  0.66667245  0.49950540
   0.11092619  0.22242644  0.56409627
   0.11094575  0.55518292  0.56409698
   0.11084466  0.88875003  0.56427340
   0.44458463  0.22247539  0.56427602
   0.44485402  0.55575526  0.56396713
   0.44457250  0.88877591  0.56427376
   0.77816070  0.22240177  0.56409628
   0.77758278  0.55578914  0.56396449
   0.77759372  0.88847224  0.56396261
   0.22267187  0.11068626  0.43602412
   0.22219883  0.44443378  0.43613919
   0.22267706  0.77865417  0.43602632
   0.55468634  0.11066746  0.43602274
   0.55338593  0.44007988  0.43720961
   0.55338589  0.77997156  0.43720289
   0.88891119  0.11114023  0.43613996
   0.88891800  0.44444188  0.43614249
   0.89326626  0.77996268  0.43720955
   0.00021314  0.00057722  0.61771786
   0.99998862  0.33333165  0.61766343
   0.00020505  0.66629686  0.61771789
   0.33333172  0.00000532  0.61784803
   0.33278514  0.33312914  0.61771398
   0.33279900  0.66632714  0.61771169
   0.66702729  0.00055162  0.61771626
   0.66704064  0.33314331  0.61771811
   0.66666505  0.66667365  0.61766721
   0.99910899  0.99934314  0.38200076
   0.00001418  0.33334118  0.38233109
   0.99911408  0.66642869  0.38199706
   0.33334613  0.00000604  0.38193741
   0.33401684  0.33427583  0.38199228
   0.33400755  0.66640816  0.38199369
   0.66691594 -0.00064510  0.38200100
   0.66692389  0.33422561  0.38199402
   0.66676037  0.66671127  0.38051336
   0.66579155  0.66571572  0.29788713
unknown system                          
           1
     8.975631   -0.000098    0.000000
    -4.487901    7.773230    0.000000