Automatically generated mesh
       9
Reciprocal lattice
    0.00000000000000    0.00000000000000    0.00000000000000             1
    0.20000000000000    0.00000000000000    0.00000000000000             4
    0.40000000000000    0.00000000000000    0.00000000000000             4
    0.00000000000000    0.20000000000000    0.00000000000000             2
    0.20000000000000    0.20000000000000   -0.00000000000000             4
    0.40000000000000    0.20000000000000    0.00000000000000             4
   -0.40000000000000    0.20000000000000    0.00000000000000             2
    0.00000000000000    0.40000000000000    0.00000000000000             2
    0.20000000000000    0.40000000000000   -0.00000000000000             2
Tetrahedra
        39    0.00666666666667
         4         2         4         4         5
         4         1         2         4         4
         4         1         1         2         4
         4         2         4         5         5
         4         2         2         4         5
         4         1         2         2         4
         4         3         5         5         6
         4         2         3         5         5
         4         2         2         3         5
         4         3         5         6         6
         4         3         3         5         6
         4         2         3         3         5
         4         3         6         6         7
         4         3         3         6         6
         8         3         3         3         6
         4         3         6         7         7
         4         3         3         6         7
         2         2         2         7         7
         4         2         3         7         7
         4         2         3         3         7
         4         2         2         2         7
         4         2         2         3         7
         4         1         2         2         2
         2         1         1         2         2
         4         5         8         8         9
         4         4         5         8         8
         4         4         4         5         8
         4         5         8         9         9
         4         5         5         8         9
         4         4         5         5         8
         2         6         6         9         9
         4         5         6         9         9
         4         5         5         6         9
         4         6         6         6         9
         4         5         6         6         9
         4         6         6         6         7
         2         6         6         7         7
         4         8         8         8         9
         2         8         8         9         9
