 vasp.5.4.4.18Apr17-6-g9f103f2a35 (build Oct 14 2020 13:51:23) complex          
  
 executed on             LinuxIFC date 2021.10.20  22:21:52
 running on   36 total cores
 distrk:  each k-point on   36 cores,    1 groups
 distr:  one band on NCORES_PER_BAND=   9 cores,    4 groups


--------------------------------------------------------------------------------------------------------


 INCAR:
 POTCAR:    PAW_PBE C 08Apr2002                   
 POTCAR:    PAW_PBE Ti_sv 26Sep2005               
 POTCAR:    PAW_PBE O 08Apr2002                   
 POTCAR:    PAW_PBE B 06Sep2000                   
 POTCAR:    PAW_PBE Au 04Oct2007                  
 POTCAR:    PAW_PBE O 08Apr2002                   
 POTCAR:    PAW_PBE H 15Jun2001                   
 POTCAR:    PAW_PBE C 08Apr2002                   
   VRHFIN =C: s2p2                                                              
   LEXCH  = PE                                                                  
   EATOM  =   147.1560 eV,   10.8157 Ry                                         
                                                                                
   TITEL  = PAW_PBE C 08Apr2002                                                 
   LULTRA =        F    use ultrasoft PP ?                                      
   IUNSCR =        1    unscreen: 0-lin 1-nonlin 2-no                           
   RPACOR =    1.200    partial core radius                                     
   POMASS =   12.011; ZVAL   =    4.000    mass and valenz                      
   RCORE  =    1.500    outmost cutoff radius                                   
   RWIGS  =    1.630; RWIGS  =    0.863    wigner-seitz radius (au A)           
   ENMAX  =  400.000; ENMIN  =  300.000 eV                                      
   ICORE  =        2    local potential                                         
   LCOR   =        T    correct aug charges                                     
   LPAW   =        T    paw PP                                                  
   EAUG   =  644.873                                                            
   DEXC   =    0.000                                                            
   RMAX   =    1.529    core radius for proj-oper                               
   RAUG   =    1.300    factor for augmentation sphere                          
   RDEP   =    1.501    radius for radial grids                                 
   RDEPT  =    1.300    core radius for aug-charge                              
                                                                                
   Atomic configuration                                                         
    4 entries                                                                   
     n  l   j            E        occ.                                          
     1  0  0.50      -273.3789   2.0000                                         
     2  0  0.50       -13.7508   2.0000                                         
     2  1  0.50        -5.2854   2.0000                                         
     3  2  1.50        -5.4423   0.0000                                         
   Description                                                                  
     l       E           TYP  RCUT    TYP  RCUT                                 
     0    -13.7508458     23  1.200                                             
     0     -8.2022199     23  1.200                                             
     1     -5.2854383     23  1.500                                             
     1     34.0145650     23  1.500                                             
     2     -5.4423304      7  1.500                                             
  local pseudopotential read in
  partial core-charges read in
  partial kinetic energy density read in
  atomic valenz-charges read in
  non local Contribution for L=           0  read in
    real space projection operators read in
  non local Contribution for L=           0  read in
    real space projection operators read in
  non local Contribution for L=           1  read in
    real space projection operators read in
  non local Contribution for L=           1  read in
    real space projection operators read in
    PAW grid and wavefunctions read in
 
   number of l-projection  operators is LMAX  =           4
   number of lm-projection operators is LMMAX =           8
 
 POTCAR:    PAW_PBE Ti_sv 26Sep2005               
   VRHFIN =Ti: 3p4s3d                                                           
   LEXCH  = PE                                                                  
   EATOM  =  1588.0892 eV,  116.7213 Ry                                         
                                                                                
   TITEL  = PAW_PBE Ti_sv 26Sep2005                                             
   LULTRA =        F    use ultrasoft PP ?                                      
   IUNSCR =        1    unscreen: 0-lin 1-nonlin 2-no                           
   RPACOR =    2.000    partial core radius                                     
   POMASS =   47.880; ZVAL   =   12.000    mass and valenz                      
   RCORE  =    2.300    outmost cutoff radius                                   
   RWIGS  =    2.300; RWIGS  =    1.217    wigner-seitz radius (au A)           
   ENMAX  =  274.610; ENMIN  =  205.957 eV                                      
   ICORE  =        3    local potential                                         
   LCOR   =        T    correct aug charges                                     
   LPAW   =        T    paw PP                                                  
   EAUG   =  482.848                                                            
   RMAX   =    2.348    core radius for proj-oper                               
   RAUG   =    1.300    factor for augmentation sphere                          
   RDEP   =    2.381    radius for radial grids                                 
   RDEPT  =    1.930    core radius for aug-charge                              
                                                                                
   Atomic configuration                                                         
    8 entries                                                                   
     n  l   j            E        occ.                                          
     1  0  0.50     -4865.3608   2.0000                                         
     2  0  0.50      -533.1368   2.0000                                         
     2  1  1.50      -440.5031   6.0000                                         
     3  0  0.50       -59.3186   2.0000                                         
     4  0  0.50        -3.7291   1.0000                                         
     3  1  1.50       -35.7012   6.0000                                         
     3  2  2.50        -1.9157   3.0000                                         
     4  3  2.50        -1.3606   0.0000                                         
   Description                                                                  
     l       E           TYP  RCUT    TYP  RCUT                                 
     0    -59.3185931     23  1.800                                             
     0     -3.7290822     23  2.300                                             
     1    -35.7012045     23  2.300                                             
     1     -1.3605826     23  2.300                                             
     2     -1.9156920     23  2.300                                             
     2     -0.0236318     23  2.300                                             
     3     -1.3605826     23  2.300                                             
  local pseudopotential read in
  partial core-charges read in
  partial kinetic energy density read in
  atomic valenz-charges read in
  non local Contribution for L=           0  read in
    real space projection operators read in
  non local Contribution for L=           0  read in
    real space projection operators read in
  non local Contribution for L=           1  read in
    real space projection operators read in
  non local Contribution for L=           1  read in
    real space projection operators read in
  non local Contribution for L=           2  read in
    real space projection operators read in
  non local Contribution for L=           2  read in
    real space projection operators read in
    PAW grid and wavefunctions read in
 
   number of l-projection  operators is LMAX  =           6
   number of lm-projection operators is LMMAX =          18
 
 POTCAR:    PAW_PBE O 08Apr2002                   
   VRHFIN =O: s2p4                                                              
   LEXCH  = PE                                                                  
   EATOM  =   432.3788 eV,   31.7789 Ry                                         
                                                                                
   TITEL  = PAW_PBE O 08Apr2002                                                 
   LULTRA =        F    use ultrasoft PP ?                                      
   IUNSCR =        1    unscreen: 0-lin 1-nonlin 2-no                           
   RPACOR =    1.200    partial core radius                                     
   POMASS =   16.000; ZVAL   =    6.000    mass and valenz                      
   RCORE  =    1.520    outmost cutoff radius                                   
   RWIGS  =    1.550; RWIGS  =    0.820    wigner-seitz radius (au A)           
   ENMAX  =  400.000; ENMIN  =  300.000 eV                                      
   ICORE  =        2    local potential                                         
   LCOR   =        T    correct aug charges                                     
   LPAW   =        T    paw PP                                                  
   EAUG   =  605.392                                                            
   DEXC   =    0.000                                                            
   RMAX   =    1.553    core radius for proj-oper                               
   RAUG   =    1.300    factor for augmentation sphere                          
   RDEP   =    1.550    radius for radial grids                                 
   RDEPT  =    1.329    core radius for aug-charge                              
                                                                                
   Atomic configuration                                                         
    4 entries                                                                   
     n  l   j            E        occ.                                          
     1  0  0.50      -514.6923   2.0000                                         
     2  0  0.50       -23.9615   2.0000                                         
     2  1  0.50        -9.0305   4.0000                                         
     3  2  1.50        -9.5241   0.0000                                         
   Description                                                                  
     l       E           TYP  RCUT    TYP  RCUT                                 
     0    -23.9615318     23  1.200                                             
     0     -9.5240782     23  1.200                                             
     1     -9.0304911     23  1.520                                             
     1      8.1634956     23  1.520                                             
     2     -9.5240782      7  1.500                                             
  local pseudopotential read in
  partial core-charges read in
  partial kinetic energy density read in
  kinetic energy density of atom read in
  atomic valenz-charges read in
  non local Contribution for L=           0  read in
    real space projection operators read in
  non local Contribution for L=           0  read in
    real space projection operators read in
  non local Contribution for L=           1  read in
    real space projection operators read in
  non local Contribution for L=           1  read in
    real space projection operators read in
    PAW grid and wavefunctions read in
 
   number of l-projection  operators is LMAX  =           4
   number of lm-projection operators is LMMAX =           8
 
 POTCAR:    PAW_PBE B 06Sep2000                   
   VRHFIN =B: s2p1                                                              
   LEXCH  = PE                                                                  
   EATOM  =    71.1703 eV,    5.2309 Ry                                         
                                                                                
   TITEL  = PAW_PBE B 06Sep2000                                                 
   LULTRA =        F    use ultrasoft PP ?                                      
   IUNSCR =        1    unscreen: 0-lin 1-nonlin 2-no                           
   RPACOR =    1.200    partial core radius                                     
   POMASS =   10.811; ZVAL   =    3.000    mass and valenz                      
   RCORE  =    1.700    outmost cutoff radius                                   
   RWIGS  =    1.710; RWIGS  =    0.905    wigner-seitz radius (au A)           
   ENMAX  =  318.614; ENMIN  =  238.960 eV                                      
   ICORE  =        2    local potential                                         
   LCOR   =        T    correct aug charges                                     
   LPAW   =        T    paw PP                                                  
   EAUG   =  535.514                                                            
   DEXC   =    0.000                                                            
   RMAX   =    1.732    core radius for proj-oper                               
   RAUG   =    1.300    factor for augmentation sphere                          
   RDEP   =    1.757    radius for radial grids                                 
   RDEPT  =    1.436    core radius for aug-charge                              
                                                                                
   Atomic configuration                                                         
    4 entries                                                                   
     n  l   j            E        occ.                                          
     1  0  0.50      -180.5896   2.0000                                         
     2  0  0.50        -9.4431   2.0000                                         
     2  1  0.50        -3.6068   1.0000                                         
     3  2  1.50        -4.0817   0.0000                                         
   Description                                                                  
     l       E           TYP  RCUT    TYP  RCUT                                 
     0     -9.4430752     23  1.500                                             
     0      0.8675899     23  1.500                                             
     1     -3.6067955     23  1.700                                             
     1      6.1086146     23  1.700                                             
     2     -4.0817478      7  1.700                                             
  local pseudopotential read in
  partial core-charges read in
  partial kinetic energy density read in
  atomic valenz-charges read in
  non local Contribution for L=           0  read in
    real space projection operators read in
  non local Contribution for L=           0  read in
    real space projection operators read in
  non local Contribution for L=           1  read in
    real space projection operators read in
  non local Contribution for L=           1  read in
    real space projection operators read in
    PAW grid and wavefunctions read in
 
   number of l-projection  operators is LMAX  =           4
   number of lm-projection operators is LMMAX =           8
 
 POTCAR:    PAW_PBE Au 04Oct2007                  
   VRHFIN =Au: s1d10                                                            
   LEXCH  = PE                                                                  
   EATOM  =   926.0867 eV,   68.0654 Ry                                         
                                                                                
   TITEL  = PAW_PBE Au 04Oct2007                                                
   LULTRA =        F    use ultrasoft PP ?                                      
   IUNSCR =        1    unscreen: 0-lin 1-nonlin 2-no                           
   RPACOR =    2.330    partial core radius                                     
   POMASS =  196.966; ZVAL   =   11.000    mass and valenz                      
   RCORE  =    2.500    outmost cutoff radius                                   
   RWIGS  =    2.840; RWIGS  =    1.503    wigner-seitz radius (au A)           
   ENMAX  =  229.943; ENMIN  =  172.457 eV                                      
   ICORE  =        3    local potential                                         
   LCOR   =        T    correct aug charges                                     
   LPAW   =        T    paw PP                                                  
   EAUG   =  356.670                                                            
   DEXC   =    0.000                                                            
   RMAX   =    2.562    core radius for proj-oper                               
   RAUG   =    1.300    factor for augmentation sphere                          
   RDEP   =    2.598    radius for radial grids                                 
   RDEPT  =    2.193    core radius for aug-charge                              
                                                                                
   Atomic configuration                                                         
   16 entries                                                                   
     n  l   j            E        occ.                                          
     1  0  0.50    -80748.5001   2.0000                                         
     2  0  0.50    -14244.7466   2.0000                                         
     2  1  1.50    -12310.9591   6.0000                                         
     3  0  0.50     -3362.1768   2.0000                                         
     3  1  1.50     -2801.5463   6.0000                                         
     3  2  2.50     -2203.8206  10.0000                                         
     4  0  0.50      -729.8168   2.0000                                         
     4  1  1.50      -546.0527   6.0000                                         
     4  2  2.50      -325.7302  10.0000                                         
     4  3  3.50       -81.1472  14.0000                                         
     5  0  0.50      -108.3201   2.0000                                         
     5  1  1.50       -59.7479   6.0000                                         
     5  2  2.50        -6.8783  10.0000                                         
     6  0  0.50        -5.7602   1.0000                                         
     6  1  1.50        -6.8029   0.0000                                         
     5  3  2.50        -1.3606   0.0000                                         
   Description                                                                  
     l       E           TYP  RCUT    TYP  RCUT                                 
     2     -6.8782861     23  2.500                                             
     2     -8.2388687     23  2.500                                             
     0     -5.7601759     23  2.500                                             
     0     -0.8493231     23  2.500                                             
     1     -2.7211652     23  2.500                                             
     1     27.2116520     23  2.500                                             
     3     -1.3605826     23  2.500                                             
  local pseudopotential read in
  partial core-charges read in
  partial kinetic energy density read in
  atomic valenz-charges read in
  non local Contribution for L=           2  read in
    real space projection operators read in
  non local Contribution for L=           2  read in
    real space projection operators read in
  non local Contribution for L=           0  read in
    real space projection operators read in
  non local Contribution for L=           0  read in
    real space projection operators read in
  non local Contribution for L=           1  read in
    real space projection operators read in
  non local Contribution for L=           1  read in
    real space projection operators read in
    PAW grid and wavefunctions read in
 
   number of l-projection  operators is LMAX  =           6
   number of lm-projection operators is LMMAX =          18
 
 POTCAR:    PAW_PBE O 08Apr2002                   
   VRHFIN =O: s2p4                                                              
   LEXCH  = PE                                                                  
   EATOM  =   432.3788 eV,   31.7789 Ry                                         
                                                                                
   TITEL  = PAW_PBE O 08Apr2002                                                 
   LULTRA =        F    use ultrasoft PP ?                                      
   IUNSCR =        1    unscreen: 0-lin 1-nonlin 2-no                           
   RPACOR =    1.200    partial core radius                                     
   POMASS =   16.000; ZVAL   =    6.000    mass and valenz                      
   RCORE  =    1.520    outmost cutoff radius                                   
   RWIGS  =    1.550; RWIGS  =    0.820    wigner-seitz radius (au A)           
   ENMAX  =  400.000; ENMIN  =  300.000 eV                                      
   ICORE  =        2    local potential                                         
   LCOR   =        T    correct aug charges                                     
   LPAW   =        T    paw PP                                                  
   EAUG   =  605.392                                                            
   DEXC   =    0.000                                                            
   RMAX   =    1.553    core radius for proj-oper                               
   RAUG   =    1.300    factor for augmentation sphere                          
   RDEP   =    1.550    radius for radial grids                                 
   RDEPT  =    1.329    core radius for aug-charge                              
                                                                                
   Atomic configuration                                                         
    4 entries                                                                   
     n  l   j            E        occ.                                          
     1  0  0.50      -514.6923   2.0000                                         
     2  0  0.50       -23.9615   2.0000                                         
     2  1  0.50        -9.0305   4.0000                                         
     3  2  1.50        -9.5241   0.0000                                         
   Description                                                                  
     l       E           TYP  RCUT    TYP  RCUT                                 
     0    -23.9615318     23  1.200                                             
     0     -9.5240782     23  1.200                                             
     1     -9.0304911     23  1.520                                             
     1      8.1634956     23  1.520                                             
     2     -9.5240782      7  1.500                                             
  local pseudopotential read in
  partial core-charges read in
  partial kinetic energy density read in
  kinetic energy density of atom read in
  atomic valenz-charges read in
  non local Contribution for L=           0  read in
    real space projection operators read in
  non local Contribution for L=           0  read in
    real space projection operators read in
  non local Contribution for L=           1  read in
    real space projection operators read in
  non local Contribution for L=           1  read in
    real space projection operators read in
    PAW grid and wavefunctions read in
 
   number of l-projection  operators is LMAX  =           4
   number of lm-projection operators is LMMAX =           8
 
 POTCAR:    PAW_PBE H 15Jun2001                   
   VRHFIN =H: ultrasoft test                                                    
   LEXCH  = PE                                                                  
   EATOM  =    12.4884 eV,    0.9179 Ry                                         
                                                                                
   TITEL  = PAW_PBE H 15Jun2001                                                 
   LULTRA =        F    use ultrasoft PP ?                                      
   IUNSCR =        0    unscreen: 0-lin 1-nonlin 2-no                           
   RPACOR =    0.000    partial core radius                                     
   POMASS =    1.000; ZVAL   =    1.000    mass and valenz                      
   RCORE  =    1.100    outmost cutoff radius                                   
   RWIGS  =    0.700; RWIGS  =    0.370    wigner-seitz radius (au A)           
   ENMAX  =  250.000; ENMIN  =  200.000 eV                                      
   RCLOC  =    0.701    cutoff for local pot                                    
   LCOR   =        T    correct aug charges                                     
   LPAW   =        T    paw PP                                                  
   EAUG   =  400.000                                                            
   RMAX   =    1.123    core radius for proj-oper                               
   RAUG   =    1.200    factor for augmentation sphere                          
   RDEP   =    1.112    radius for radial grids                                 
   RDEPT  =    0.926    core radius for aug-charge                              
                                                                                
   Atomic configuration                                                         
    2 entries                                                                   
     n  l   j            E        occ.                                          
     1  0  0.50        -6.4927   1.0000                                         
     2  1  0.50        -3.4015   0.0000                                         
   Description                                                                  
     l       E           TYP  RCUT    TYP  RCUT                                 
     0     -6.4927494     23  1.100                                             
     0      6.8029130     23  1.100                                             
     1     -4.0817478     23  1.100                                             
  local pseudopotential read in
  atomic valenz-charges read in
  non local Contribution for L=           0  read in
    real space projection operators read in
  non local Contribution for L=           0  read in
    real space projection operators read in
  non local Contribution for L=           1  read in
    real space projection operators read in
    PAW grid and wavefunctions read in
 
   number of l-projection  operators is LMAX  =           3
   number of lm-projection operators is LMMAX =           5
 

 ----------------------------------------------------------------------------- 
|                                                                             |
|  ADVICE TO THIS USER RUNNING 'VASP/VAMP'   (HEAR YOUR MASTER'S VOICE ...):  |
|                                                                             |
|      You have a (more or less) 'large supercell' and for larger cells       |
|      it might be more efficient to use real space projection opertators     |
|      So try LREAL= Auto  in the INCAR   file.                               |
|      Mind:          For very  accurate calculation you might also keep the  |
|      reciprocal projection scheme          (i.e. LREAL=.FALSE.)             |
|                                                                             |
 ----------------------------------------------------------------------------- 

  PAW_PBE C 08Apr2002                   :
 energy of atom  1       EATOM= -147.1560
 kinetic energy error for atom=    0.0057 (will be added to EATOM!!)
  PAW_PBE Ti_sv 26Sep2005               :
 energy of atom  2       EATOM=-1588.0892
 kinetic energy error for atom=    0.0027 (will be added to EATOM!!)
  PAW_PBE O 08Apr2002                   :
 energy of atom  3       EATOM= -432.3788
 kinetic energy error for atom=    0.0168 (will be added to EATOM!!)
  PAW_PBE B 06Sep2000                   :
 energy of atom  4       EATOM=  -71.1703
 kinetic energy error for atom=    0.0007 (will be added to EATOM!!)
  PAW_PBE Au 04Oct2007                  :
 energy of atom  5       EATOM= -926.0867
 kinetic energy error for atom=    0.0013 (will be added to EATOM!!)
  PAW_PBE O 08Apr2002                   :
 energy of atom  6       EATOM= -432.3788
 kinetic energy error for atom=    0.0168 (will be added to EATOM!!)
  PAW_PBE H 15Jun2001                   :
 energy of atom  7       EATOM=  -12.4884
 kinetic energy error for atom=    0.0004 (will be added to EATOM!!)
 
 
 POSCAR: C1Ti2                                   
  positions in direct lattice
  velocities in cartesian coordinates
 exchange correlation table for  LEXCH =        8
   RHO(1)=    0.500       N(1)  =     2000
   RHO(2)=  100.500       N(2)  =     4000

 VTST: version 3.2, (02/03/18)

 CHAIN: initializing optimizer
 
 OPT: Using VASP Dynamics algorithm
 CHAIN: Read ICHAIN            0
 
 POSCAR: C1Ti2                                   
  positions in direct lattice
  velocities in cartesian coordinates
 


--------------------------------------------------------------------------------------------------------


 ion  position               nearest neighbor table
   1  0.332  0.997  0.501-  13 2.16  19 2.17  22 2.17  21 2.18  15 2.18  12 2.18
   2  0.332  0.330  0.501-  13 2.15  19 2.17  23 2.18  10 2.18  14 2.18  20 2.18
   3  0.333  0.664  0.501-  24 2.05  11 2.17  14 2.18  21 2.19  15 2.19  20 2.21
   4  0.665  0.996  0.502-  25 2.13  18 2.15  24 2.17  22 2.18  15 2.18  16 2.19
   5  0.665  0.330  0.501-  13 2.15  22 2.17  23 2.18  16 2.18  17 2.18  26 2.18
   6  0.666  0.665  0.501-  27 2.16  24 2.16  18 2.17  23 2.17  17 2.18  14 2.18
   7  0.997  0.996  0.502-  25 2.13  18 2.15  27 2.17  19 2.18  12 2.18  10 2.19
   8  0.999  0.332  0.501-  25 2.07  11 2.15  26 2.18  20 2.18  16 2.19  10 2.19
   9  0.998  0.664  0.501-  27 2.05  11 2.17  17 2.18  21 2.19  12 2.19  26 2.21
  10  0.111  0.219  0.562-  28 1.95  29 1.96  34 1.96   2 2.18   7 2.19   8 2.19
  11  0.110  0.553  0.560-  30 1.97  29 1.97  35 1.97   8 2.15   3 2.17   9 2.17
  12  0.110  0.887  0.562-  28 1.95  30 1.96  36 1.97   1 2.18   7 2.18   9 2.19
  13  0.443  0.220  0.560-  32 1.97  31 1.99  28 1.99   5 2.15   2 2.15   1 2.16
  14  0.444  0.553  0.561-  32 1.96  33 1.96  29 1.97   2 2.18   3 2.18   6 2.18
  15  0.444  0.887  0.562-  31 1.95  30 1.96  33 1.97   1 2.18   4 2.18   3 2.19
  16  0.776  0.219  0.562-  31 1.95  35 1.96  34 1.96   5 2.18   4 2.19   8 2.19
  17  0.776  0.553  0.561-  32 1.96  36 1.96  35 1.97   5 2.18   9 2.18   6 2.18
  18  0.776  0.886  0.560-  36 1.98  33 1.98  34 1.98   4 2.15   7 2.15   6 2.17
  19  0.220  0.108  0.442-  37 1.97  40 1.97  39 1.97   2 2.17   1 2.17   7 2.18
  20  0.219  0.439  0.440-  37 1.95  41 1.96  38 1.97   8 2.18   2 2.18   3 2.21
  21  0.222  0.776  0.441-  39 1.95  42 1.95  38 1.98   1 2.18   9 2.19   3 2.19
  22  0.554  0.108  0.442-  43 1.97  40 1.97  42 1.97   5 2.17   1 2.17   4 2.18
  23  0.554  0.442  0.441-  40 1.96  44 1.97  41 1.97   6 2.17   5 2.18   2 2.18
  24  0.542  0.769  0.445-  42 1.96  41 1.97   3 2.05   6 2.16   4 2.17  45 2.49
  25  0.891  0.116  0.447-  37 1.99  43 1.99   8 2.07   7 2.13   4 2.13  45 2.40
  26  0.886  0.439  0.440-  43 1.95  44 1.96  38 1.97   8 2.18   5 2.18   9 2.21
  27  0.893  0.769  0.445-  39 1.96  44 1.97   9 2.05   6 2.16   7 2.17  45 2.49
  28  0.221  0.108  0.604-  10 1.95  12 1.95  13 1.99
  29  0.221  0.442  0.603-  10 1.96  11 1.97  14 1.97
  30  0.220  0.774  0.603-  12 1.96  15 1.96  11 1.97
  31  0.554  0.108  0.604-  16 1.95  15 1.95  13 1.99
  32  0.554  0.442  0.603-  14 1.96  17 1.96  13 1.97
  33  0.553  0.774  0.604-  14 1.96  15 1.97  18 1.98
  34  0.888  0.109  0.604-  10 1.96  16 1.96  18 1.98
  35  0.888  0.442  0.603-  16 1.96  11 1.97  17 1.97
  36  0.887  0.774  0.604-  17 1.96  12 1.97  18 1.98
  37  0.108  0.218  0.399-  20 1.95  19 1.97  25 1.99
  38  0.109  0.552  0.399-  20 1.97  26 1.97  21 1.98
  39  0.109  0.886  0.399-  21 1.95  27 1.96  19 1.97
  40  0.443  0.219  0.400-  23 1.96  22 1.97  19 1.97
  41  0.442  0.552  0.400-  20 1.96  23 1.97  24 1.97
  42  0.443  0.886  0.399-  21 1.95  24 1.96  22 1.97
  43  0.776  0.218  0.399-  26 1.95  22 1.97  25 1.99
  44  0.777  0.552  0.400-  26 1.96  23 1.97  27 1.97
  45  0.782  0.897  0.369-  46 1.87  25 2.40  27 2.49  24 2.49
  46  0.745  0.822  0.288-  45 1.87  47 1.98
  47  0.716  0.766  0.199-  48 0.97  46 1.98
  48  0.764  0.862  0.171-  47 0.97
 
  LATTYP: Found a base centered orthorhombic cell.
 ALAT       =     9.0317878587
 B/A-ratio  =     1.7331597422
 C/A-ratio  =     2.4152618649
  
  Lattice vectors:
  
 A1 = (   4.5158939293,   7.8267655583,   0.0000000000)
 A2 = (   4.5158939293,  -7.8267655583,   0.0000000000)
 A3 = (   0.0000000000,   0.0000000000, -21.8141327873)


Analysis of symmetry for initial positions (statically):
=====================================================================
 Subroutine PRICEL returns:
 Original cell was already a primitive cell.
 

 Routine SETGRP: Setting up the symmetry group for a 
 base centered orthorhombic supercell.


 Subroutine GETGRP returns: Found  2 space group operations
 (whereof  1 operations were pure point group operations)
 out of a pool of  8 trial point group operations.


The static configuration has the point symmetry C_1 .
 The point group associated with its full space group is C_1h.


Analysis of symmetry for dynamics (positions and initial velocities):
=====================================================================
 Subroutine PRICEL returns:
 Original cell was already a primitive cell.
 

 Routine SETGRP: Setting up the symmetry group for a 
 base centered orthorhombic supercell.


 Subroutine GETGRP returns: Found  2 space group operations
 (whereof  1 operations were pure point group operations)
 out of a pool of  8 trial point group operations.


The dynamic configuration has the point symmetry C_1 .
 The point group associated with its full space group is C_1h.


Analysis of structural, dynamic, and magnetic symmetry:
=====================================================================
 Subroutine PRICEL returns:
 Original cell was already a primitive cell.
 

 Routine SETGRP: Setting up the symmetry group for a 
 base centered orthorhombic supercell.


 Subroutine GETGRP returns: Found  2 space group operations
 (whereof  1 operations were pure point group operations)
 out of a pool of  8 trial point group operations.


The magnetic configuration has the point symmetry C_1 .
 The point group associated with its full space group is C_1h.


 Subroutine INISYM returns: Found  2 space group operations
 (whereof  1 operations are pure point group operations),
 and found     1 'primitive' translations

 
 
 KPOINTS: Auto                                    

Automatic generation of k-mesh.
Space group operators:
 irot       det(A)        alpha          n_x          n_y          n_z        tau_x        tau_y        tau_z
    1     1.000000     0.000000     1.000000     0.000000     0.000000     0.000000     0.000000     0.000000
    2    -1.000000   180.000000     1.000000     0.000000     0.000000     0.666666     0.000000     0.000000
 
 Subroutine IBZKPT returns following result:
 ===========================================
 
 Found      9 irreducible k-points:
 
 Following reciprocal coordinates:
            Coordinates               Weight
  0.000000  0.000000  0.000000      1.000000
  0.200000  0.000000  0.000000      4.000000
  0.400000  0.000000  0.000000      4.000000
  0.000000  0.200000  0.000000      2.000000
  0.200000  0.200000 -0.000000      4.000000
  0.400000  0.200000  0.000000      4.000000
 -0.400000  0.200000  0.000000      2.000000
  0.000000  0.400000  0.000000      2.000000
  0.200000  0.400000 -0.000000      2.000000
 
 Following cartesian coordinates:
            Coordinates               Weight
  0.000000  0.000000  0.000000      1.000000
  0.022144  0.012777  0.000000      4.000000
  0.044288  0.025553  0.000000      4.000000
  0.000000  0.025553 -0.000000      2.000000
  0.022144  0.038330 -0.000000      4.000000
  0.044288  0.051107 -0.000000      4.000000
 -0.044288  0.000000 -0.000000      2.000000
  0.000000  0.051107 -0.000000      2.000000
  0.022144  0.063883 -0.000000      2.000000
 
 TETIRR: Found     39 inequivalent tetrahedra from      150


--------------------------------------------------------------------------------------------------------




 Dimension of arrays:
   k-points           NKPTS =      9   k-points in BZ     NKDIM =      9   number of bands    NBANDS=    252
   number of dos      NEDOS =    301   number of ions     NIONS =     48
   non local maximal  LDIM  =      6   non local SUM 2l+1 LMDIM =     18
   total plane-waves  NPLWV = 408240
   max r-space proj   IRMAX =      1   max aug-charges    IRDMAX=  16387
   dimension x,y,z NGX =    54 NGY =   54 NGZ =  140
   dimension x,y,z NGXF=   108 NGYF=  108 NGZF=  280
   support grid    NGXF=   108 NGYF=  108 NGZF=  280
   ions per type =               9  18  17   1   1   1   1
   NGX,Y,Z   is equivalent  to a cutoff of   9.94,  9.93, 10.67 a.u.
   NGXF,Y,Z  is equivalent  to a cutoff of  19.88, 19.87, 21.34 a.u.

 SYSTEM =  unknown system                          
 POSCAR =  C1Ti2                                   

 Startparameter for this run:
   NWRITE =      2    write-flag & timer
   PREC   = normal    normal or accurate (medium, high low for compatibility)
   ISTART =      0    job   : 0-new  1-cont  2-samecut
   ICHARG =      2    charge: 1-file 2-atom 10-const
   ISPIN  =      2    spin polarized calculation?
   LNONCOLLINEAR =      F non collinear calculations
   LSORBIT =      F    spin-orbit coupling
   INIWAV =      1    electr: 0-lowe 1-rand  2-diag
   LASPH  =      F    aspherical Exc in radial PAW
   METAGGA=      F    non-selfconsistent MetaGGA calc.

 Electronic Relaxation 1
   ENCUT  =  600.0 eV  44.10 Ry    6.64 a.u.  18.04 18.05 43.57*2*pi/ulx,y,z
   ENINI  =  600.0     initial cutoff
   ENAUG  =  644.9 eV  augmentation charge cutoff
   NELM   =    100;   NELMIN=  5; NELMDL= -5     # of ELM steps 
   EDIFF  = 0.1E-04   stopping-criterion for ELM
   LREAL  =      F    real-space projection
   NLSPLINE    = F    spline interpolate recip. space projectors
   LCOMPAT=      F    compatible to vasp.4.4
   GGA_COMPAT  = T    GGA compatible to vasp.4.4-vasp.4.6
   LMAXPAW     = -100 max onsite density
   LMAXMIX     =    2 max onsite mixed and CHGCAR
   VOSKOWN=      0    Vosko Wilk Nusair interpolation
   ROPT   =    0.00000   0.00000   0.00000   0.00000
   ROPT   =    0.00000   0.00000   0.00000
 Ionic relaxation
   EDIFFG = -.1E-01   stopping-criterion for IOM
   NSW    =      0    number of steps for IOM
   NBLOCK =      1;   KBLOCK =      1    inner block; outer block 
   IBRION =     -1    ionic relax: 0-MD 1-quasi-New 2-CG
   NFREE  =      0    steps in history (QN), initial steepest desc. (CG)
   ISIF   =      2    stress and relaxation
   IWAVPR =     10    prediction:  0-non 1-charg 2-wave 3-comb
   ISYM   =      2    0-nonsym 1-usesym 2-fastsym
   LCORR  =      T    Harris-Foulkes like correction to forces

   POTIM  = 0.0500    time-step for ionic-motion
   TEIN   =    0.0    initial temperature
   TEBEG  =    0.0;   TEEND  =   0.0 temperature during run
   SMASS  =  -3.00    Nose mass-parameter (am)
   estimated Nose-frequenzy (Omega)   =  0.10E-29 period in steps =****** mass=  -0.186E-26a.u.
   SCALEE = 1.0000    scale energy and forces
   NPACO  =    256;   APACO  = 16.0  distance and # of slots for P.C.
   PSTRESS=    0.0 pullay stress

  Mass of Ions in am
   POMASS =  12.01 47.88 16.00 10.81196.97 16.00  1.00
  Ionic Valenz
   ZVAL   =   4.00 12.00  6.00  3.00 11.00  6.00  1.00
  Atomic Wigner-Seitz radii
   RWIGS  =  -1.00 -1.00 -1.00 -1.00 -1.00 -1.00 -1.00
  virtual crystal weights 
   VCA    =   1.00  1.00  1.00  1.00  1.00  1.00  1.00
   NELECT =     375.0000    total number of electrons
   NUPDOWN=      -1.0000    fix difference up-down

 DOS related values:
   EMIN   =  10.00;   EMAX   =-10.00  energy-range for DOS
   EFERMI =   0.00
   ISMEAR =    -5;   SIGMA  =   0.02  broadening in eV -4-tet -1-fermi 0-gaus

 Electronic relaxation 2 (details)
   IALGO  =     68    algorithm
   LDIAG  =      T    sub-space diagonalisation (order eigenvalues)
   LSUBROT=      F    optimize rotation matrix (better conditioning)
   TURBO    =      0    0=normal 1=particle mesh
   IRESTART =      0    0=no restart 2=restart with 2 vectors
   NREBOOT  =      0    no. of reboots
   NMIN     =      0    reboot dimension
   EREF     =   0.00    reference energy to select bands
   IMIX   =      4    mixing-type and parameters
     AMIX     =   0.40;   BMIX     =  1.00
     AMIX_MAG =   1.60;   BMIX_MAG =  1.00
     AMIN     =   0.10
     WC   =   100.;   INIMIX=   1;  MIXPRE=   1;  MAXMIX= -45

 Intra band minimization:
   WEIMIN = 0.0000     energy-eigenvalue tresh-hold
   EBREAK =  0.99E-08  absolut break condition
   DEPER  =   0.30     relativ break condition  

   TIME   =   0.40     timestep for ELM

  volume/ion in A,a.u.               =      32.13       216.80
  Fermi-wavevector in a.u.,A,eV,Ry     =   1.021850  1.931017 14.206903  1.044178
  Thomas-Fermi vector in A             =   2.155497
 
 Write flags
   LWAVE        =      F    write WAVECAR
   LDOWNSAMPLE  =      F    k-point downsampling of WAVECAR
   LCHARG       =      T    write CHGCAR
   LVTOT        =      F    write LOCPOT, total local potential
   LVHAR        =      F    write LOCPOT, Hartree potential only
   LELF         =      T    write electronic localiz. function (ELF)
   LORBIT       =     11    0 simple, 1 ext, 2 COOP (PROOUT), +10 PAW based schemes


 Dipole corrections
   LMONO  =      F    monopole corrections only (constant potential shift)
   LDIPOL =      F    correct potential (dipole corrections)
   IDIPOL =      0    1-x, 2-y, 3-z, 4-all directions 
   EPSILON=  1.0000000 bulk dielectric constant

 Exchange correlation treatment:
   GGA     =    --    GGA type
   LEXCH   =     8    internal setting for exchange type
   VOSKOWN=      0    Vosko Wilk Nusair interpolation
   LHFCALC =     F    Hartree Fock is set to
   LHFONE  =     F    Hartree Fock one center treatment
   AEXX    =    0.0000 exact exchange contribution

 Linear response parameters
   LEPSILON=     F    determine dielectric tensor
   LRPA    =     F    only Hartree local field effects (RPA)
   LNABLA  =     F    use nabla operator in PAW spheres
   LVEL    =     F    velocity operator in full k-point grid
   LINTERFAST=   F  fast interpolation
   KINTER  =     0    interpolate to denser k-point grid
   CSHIFT  =0.1000    complex shift for real part using Kramers Kronig
   OMEGAMAX=  -1.0    maximum frequency
   DEG_THRESHOLD= 0.2000000E-02 threshold for treating states as degnerate
   RTIME   =   -0.100 relaxation time in fs
  (WPLASMAI=    0.000 imaginary part of plasma frequency in eV, 0.658/RTIME)
   DFIELD  = 0.0000000 0.0000000 0.0000000 field for delta impulse in time
 
 Orbital magnetization related:
   ORBITALMAG=     F  switch on orbital magnetization
   LCHIMAG   =     F  perturbation theory with respect to B field
   DQ        =  0.001000  dq finite difference perturbation B field
   LLRAUG    =     F  two centre corrections for induced B field



--------------------------------------------------------------------------------------------------------


 Static calculation
 charge density and potential will be updated during run
 spin polarized calculation
 RMM-DIIS sequential band-by-band and
  variant of blocked Davidson during initial phase
 perform sub-space diagonalisation
    before iterative eigenvector-optimisation
 modified Broyden-mixing scheme, WC =      100.0
 initial mixing is a Kerker type mixing with AMIX =  0.4000 and BMIX =      1.0000
 Hartree-type preconditioning will be used
 using additional bands           64
 reciprocal scheme for non local part
 use partial core corrections
 calculate Harris-corrections to forces 
   (improved forces if not selfconsistent)
 use gradient corrections 
 use of overlap-Matrix (Vanderbilt PP)
 Fermi weights with tetrahedron method with Bloechl corrections


--------------------------------------------------------------------------------------------------------


  energy-cutoff  :      600.00
  volume of cell :     1542.03
      direct lattice vectors                 reciprocal lattice vectors
     9.031787859  0.000000000  0.000000000     0.110720050  0.063883350  0.000000000
    -4.515893929  7.826765558  0.000000000     0.000000000  0.127766699 -0.000000000
    -0.000000000  0.000000000 21.814132787     0.000000000  0.000000000  0.045841841

  length of vectors
     9.031787859  9.036125114 21.814132787     0.127828055  0.127766699  0.045841841


 
 k-points in units of 2pi/SCALE and weight: Auto                                    
   0.00000000  0.00000000  0.00000000       0.040
   0.02214401  0.01277667  0.00000000       0.160
   0.04428802  0.02555334  0.00000000       0.160
   0.00000000  0.02555334 -0.00000000       0.080
   0.02214401  0.03833001 -0.00000000       0.160
   0.04428802  0.05110668 -0.00000000       0.160
  -0.04428802  0.00000000 -0.00000000       0.080
   0.00000000  0.05110668 -0.00000000       0.080
   0.02214401  0.06388335 -0.00000000       0.080
 
 k-points in reciprocal lattice and weights: Auto                                    
   0.00000000  0.00000000  0.00000000       0.040
   0.20000000  0.00000000  0.00000000       0.160
   0.40000000  0.00000000  0.00000000       0.160
   0.00000000  0.20000000  0.00000000       0.080
   0.20000000  0.20000000 -0.00000000       0.160
   0.40000000  0.20000000  0.00000000       0.160
  -0.40000000  0.20000000  0.00000000       0.080
   0.00000000  0.40000000  0.00000000       0.080
   0.20000000  0.40000000 -0.00000000       0.080
 
 position of ions in fractional coordinates (direct lattice) 
   0.33180900  0.99695131  0.50145087
   0.33160234  0.32998682  0.50138060
   0.33277419  0.66430871  0.50103999
   0.66548458  0.99613652  0.50152116
   0.66505110  0.32998691  0.50138060
   0.66595369  0.66524074  0.50064520
   0.99731864  0.99613653  0.50152115
   0.99922547  0.33178440  0.50147823
   0.99820112  0.66430882  0.50103996
   0.11053116  0.21943383  0.56216080
   0.10982483  0.55298310  0.56020153
   0.11029190  0.88730474  0.56193254
   0.44348253  0.22029830  0.55993873
   0.44392161  0.55301751  0.56135378
   0.44367930  0.88730463  0.56193252
   0.77556951  0.21943391  0.56216074
   0.77576246  0.55301783  0.56135377
   0.77637653  0.88608642  0.56045698
   0.22034565  0.10798569  0.44197626
   0.21930574  0.43883957  0.44039432
   0.22154461  0.77642305  0.44063887
   0.55430654  0.10798540  0.44197613
   0.55425076  0.44183459  0.44137070
   0.54241309  0.76918355  0.44487343
   0.89122468  0.11578257  0.44664228
   0.88620047  0.43883943  0.44039431
   0.89343685  0.76918370  0.44487339
   0.22067834  0.10824387  0.60352640
   0.22059552  0.44221114  0.60315418
   0.22045400  0.77424170  0.60318590
   0.55423208  0.10824386  0.60352638
   0.55416170  0.44165709  0.60320540
   0.55348175  0.77414431  0.60361962
   0.88779822  0.10892970  0.60368701
   0.88828205  0.44221134  0.60315418
   0.88732910  0.77414454  0.60361968
   0.10821803  0.21770354  0.39932506
   0.10945437  0.55224182  0.39890641
   0.10929364  0.88564944  0.39928260
   0.44296881  0.21927079  0.39971882
   0.44187936  0.55194615  0.39955986
   0.44302234  0.88564924  0.39928255
   0.77615247  0.21770388  0.39932498
   0.77673331  0.55194573  0.39955988
   0.78170452  0.89674255  0.36939491
   0.74458004  0.82249662  0.28769111
   0.71636387  0.76606428  0.19934878
   0.76408840  0.86151333  0.17071717
 
 position of ions in cartesian coordinates  (Angst):
  -1.50529784  7.80290417 10.93871587
   1.50477651  2.58272949 10.93718303
   0.00559820  5.19938856 10.92975292
   1.51206872  7.79652700 10.94024927
   4.51641451  2.58273022 10.93718306
   3.01059583  5.20668333 10.92114090
   4.50912344  7.79652711 10.94024886
   7.52648928  2.59679873 10.93931275
   6.01559255  5.19938940 10.92975226
   0.00735408  1.71745715 12.26305033
  -1.50529845  4.32806910 12.22031061
  -3.01084107  6.94472615 12.25807112
   3.01059636  1.72422315 12.21457787
   1.51203740  4.32833840 12.24544584
   0.00024373  6.94472531 12.25807056
   6.01383900  1.71745780 12.26304893
   4.50915209  4.32834090 12.24544570
   3.01059582  6.93519066 12.22588297
   1.50246325  0.84517869  9.64132878
  -0.00103004  3.43469446  9.60682021
  -1.50530019  6.07688119  9.61215478
   4.51872847  0.84517637  9.64132591
   3.01059712  3.45813577  9.62811899
   1.42540862  6.02021935  9.70452818
   7.52649043  0.90620301  9.74311405
   6.02222234  3.43469336  9.60681997
   4.59578012  6.02022045  9.70452722
   1.50430208  0.84719942 13.16540503
  -0.00460666  3.46108289 13.15728529
  -1.50529963  6.05980828 13.15797732
   4.51688877  0.84719934 13.16540462
   3.01059438  3.45674648 13.15840276
   1.50297617  6.05904605 13.16743865
   7.52649022  0.85256719 13.16890863
   6.02579556  3.46108445 13.15728530
   4.51821357  6.05904781 13.16743986
  -0.00572377  1.70391457  8.71092981
  -1.50529685  4.32226723  8.70179746
  -3.01238200  6.93177055  8.71000357
   3.01059672  1.71618103  8.71951952
   1.49843038  4.31995308  8.71605192
   0.00178577  6.93176895  8.71000257
   6.02691681  1.70391726  8.71092809
   4.52276212  4.31994981  8.71605218
   3.01059514  7.01859369  8.05802953
   3.01058148  6.43748823  6.27573206
   3.01058148  5.99580550  4.34862084
   3.01058148  6.74286288  3.72404697
 


--------------------------------------------------------------------------------------------------------


 k-point  1 :   0.0000 0.0000 0.0000  plane waves:   51399
 k-point  2 :   0.2000 0.0000 0.0000  plane waves:   51423
 k-point  3 :   0.4000 0.0000 0.0000  plane waves:   51500
 k-point  4 :   0.0000 0.2000 0.0000  plane waves:   51427
 k-point  5 :   0.2000 0.2000-0.0000  plane waves:   51456
 k-point  6 :   0.4000 0.2000 0.0000  plane waves:   51516
 k-point  7 :  -0.4000 0.2000 0.0000  plane waves:   51464
 k-point  8 :   0.0000 0.4000 0.0000  plane waves:   51492
 k-point  9 :   0.2000 0.4000-0.0000  plane waves:   51502

 maximum and minimum number of plane-waves per node :      5757     5682

 maximum number of plane-waves:     51516
 maximum index in each direction: 
   IXMAX=   18   IYMAX=   18   IZMAX=   43
   IXMIN=  -18   IYMIN=  -18   IZMIN=  -43


 parallel 3D FFT for wavefunctions:
    minimum data exchange during FFTs selected (reduces bandwidth)
 parallel 3D FFT for charge:
    minimum data exchange during FFTs selected (reduces bandwidth)


 total amount of memory used by VASP MPI-rank0   210997. kBytes
=======================================================================

   base      :      30000. kBytes
   nonl-proj :      56363. kBytes
   fftplans  :       4476. kBytes
   grid      :      14592. kBytes
   one-center:        186. kBytes
   wavefun   :     105380. kBytes
 
     INWAV:  cpu time    0.0001: real time    0.0003
 Broyden mixing: mesh for mixing (old mesh)
   NGX = 37   NGY = 37   NGZ = 87
  (NGX  =108   NGY  =108   NGZ  =280)
  gives a total of 119103 points

 initial charge density was supplied:
 charge density of overlapping atoms calculated
 number of electron     375.0000000 magnetization      48.0000000
 keeping initial charge density in first step


--------------------------------------------------------------------------------------------------------


 Maximum index for augmentation-charges          525 (set IRDMAX)


--------------------------------------------------------------------------------------------------------


 First call to EWALD:  gamma=   0.153
 Maximum number of real-space cells 4x 4x 2
 Maximum number of reciprocal cells 2x 2x 5

    FEWALD:  cpu time    0.0024: real time    0.0033


--------------------------------------- Iteration      1(   1)  ---------------------------------------


    POTLOK:  cpu time    0.1263: real time    0.1325
    SETDIJ:  cpu time    0.0120: real time    0.0120
     EDDAV:  cpu time   34.6093: real time   34.6395
 BZINTS: Fermi energy: 12.839794;375.000000 electrons
         Band energy:***********;  BLOECHL correction: -0.009472
       DOS:  cpu time    0.0205: real time    0.0205
    --------------------------------------------
      LOOP:  cpu time   34.7681: real time   34.8045

 eigenvalue-minimisations  : 10304
 total energy-change (2. order) : 0.5398217E+04  (-0.1958728E+05)
 number of electron     375.0000000 magnetization      48.0000000
 augmentation part      375.0000000 magnetization      48.0000000

 Free energy of the ion-electron system (eV)
  ---------------------------------------------------
  alpha Z        PSCENC =       540.90897868
  Ewald energy   TEWEN  =    133770.97969278
  -Hartree energ DENC   =   -167478.53039249
  -exchange      EXHF   =         0.00000000
  -V(xc)+E(xc)   XCENC  =      1765.69625405
  PAW double counting   =     30890.73426663   -30551.63616167
  entropy T*S    EENTRO =         0.00000000
  eigenvalues    EBANDS =     -2242.10395283
  atomic energy  EATOM  =     38702.16803540
  Solvation  Ediel_sol  =         0.00000000
  ---------------------------------------------------
  free energy    TOTEN  =      5398.21672054 eV

  energy without entropy =     5398.21672054  energy(sigma->0) =     5398.21672054


--------------------------------------------------------------------------------------------------------




--------------------------------------- Iteration      1(   2)  ---------------------------------------


     EDDAV:  cpu time   34.5082: real time   34.5386
 BZINTS: Fermi energy:  0.276359;375.000000 electrons
         Band energy:***********;  BLOECHL correction: -0.035599
       DOS:  cpu time    0.0214: real time    0.0214
    --------------------------------------------
      LOOP:  cpu time   34.5296: real time   34.5600

 eigenvalue-minimisations  : 10244
 total energy-change (2. order) :-0.4942092E+04  (-0.4695034E+04)
 number of electron     375.0000000 magnetization      48.0000000
 augmentation part      375.0000000 magnetization      48.0000000

 Free energy of the ion-electron system (eV)
  ---------------------------------------------------
  alpha Z        PSCENC =       540.90897868
  Ewald energy   TEWEN  =    133770.97969278
  -Hartree energ DENC   =   -167478.53039249
  -exchange      EXHF   =         0.00000000
  -V(xc)+E(xc)   XCENC  =      1765.69625405
  PAW double counting   =     30890.73426663   -30551.63616167
  entropy T*S    EENTRO =         0.00000000
  eigenvalues    EBANDS =     -7184.19546212
  atomic energy  EATOM  =     38702.16803540
  Solvation  Ediel_sol  =         0.00000000
  ---------------------------------------------------
  free energy    TOTEN  =       456.12521125 eV

  energy without entropy =      456.12521125  energy(sigma->0) =      456.12521125


--------------------------------------------------------------------------------------------------------




--------------------------------------- Iteration      1(   3)  ---------------------------------------


     EDDAV:  cpu time   39.7530: real time   39.7874
 BZINTS: Fermi energy: -1.694566;375.000000 electrons
         Band energy:***********;  BLOECHL correction: -0.018573
       DOS:  cpu time    0.0202: real time    0.0224
    --------------------------------------------
      LOOP:  cpu time   39.7732: real time   39.8098

 eigenvalue-minimisations  : 12256
 total energy-change (2. order) :-0.8774504E+03  (-0.8586167E+03)
 number of electron     375.0000000 magnetization      48.0000000
 augmentation part      375.0000000 magnetization      48.0000000

 Free energy of the ion-electron system (eV)
  ---------------------------------------------------
  alpha Z        PSCENC =       540.90897868
  Ewald energy   TEWEN  =    133770.97969278
  -Hartree energ DENC   =   -167478.53039249
  -exchange      EXHF   =         0.00000000
  -V(xc)+E(xc)   XCENC  =      1765.69625405
  PAW double counting   =     30890.73426663   -30551.63616167
  entropy T*S    EENTRO =         0.00000000
  eigenvalues    EBANDS =     -8061.64588857
  atomic energy  EATOM  =     38702.16803540
  Solvation  Ediel_sol  =         0.00000000
  ---------------------------------------------------
  free energy    TOTEN  =      -421.32521520 eV

  energy without entropy =     -421.32521520  energy(sigma->0) =     -421.32521520


--------------------------------------------------------------------------------------------------------




--------------------------------------- Iteration      1(   4)  ---------------------------------------


     EDDAV:  cpu time   44.3982: real time   44.4306
 BZINTS: Fermi energy: -1.838463;375.000000 electrons
         Band energy:***********;  BLOECHL correction: -0.024221
       DOS:  cpu time    0.0194: real time    0.0194
    --------------------------------------------
      LOOP:  cpu time   44.4175: real time   44.4500

 eigenvalue-minimisations  : 14032
 total energy-change (2. order) :-0.9583116E+02  (-0.9558631E+02)
 number of electron     375.0000000 magnetization      48.0000000
 augmentation part      375.0000000 magnetization      48.0000000

 Free energy of the ion-electron system (eV)
  ---------------------------------------------------
  alpha Z        PSCENC =       540.90897868
  Ewald energy   TEWEN  =    133770.97969278
  -Hartree energ DENC   =   -167478.53039249
  -exchange      EXHF   =         0.00000000
  -V(xc)+E(xc)   XCENC  =      1765.69625405
  PAW double counting   =     30890.73426663   -30551.63616167
  entropy T*S    EENTRO =         0.00000000
  eigenvalues    EBANDS =     -8157.47704407
  atomic energy  EATOM  =     38702.16803540
  Solvation  Ediel_sol  =         0.00000000
  ---------------------------------------------------
  free energy    TOTEN  =      -517.15637070 eV

  energy without entropy =     -517.15637070  energy(sigma->0) =     -517.15637070


--------------------------------------------------------------------------------------------------------




--------------------------------------- Iteration      1(   5)  ---------------------------------------


     EDDAV:  cpu time   45.7901: real time   45.8355
 BZINTS: Fermi energy: -1.847456;375.000000 electrons
         Band energy:***********;  BLOECHL correction: -0.024400
       DOS:  cpu time    0.0193: real time    0.0195
    CHARGE:  cpu time    0.5216: real time    0.5216
    MIXING:  cpu time    0.0046: real time    0.0046
    --------------------------------------------
      LOOP:  cpu time   46.3356: real time   46.3812

 eigenvalue-minimisations  : 14584
 total energy-change (2. order) :-0.8929043E+01  (-0.8926167E+01)
 number of electron     375.0000121 magnetization      42.4842731
 augmentation part       79.5724072 magnetization      40.4884048

 Broyden mixing:
  rms(total) = 0.95039E+01    rms(broyden)= 0.95037E+01
  rms(prec ) = 0.99696E+01
  weight for this iteration     100.00

 Free energy of the ion-electron system (eV)
  ---------------------------------------------------
  alpha Z        PSCENC =       540.90897868
  Ewald energy   TEWEN  =    133770.97969278
  -Hartree energ DENC   =   -167478.53039249
  -exchange      EXHF   =         0.00000000
  -V(xc)+E(xc)   XCENC  =      1765.69625405
  PAW double counting   =     30890.73426663   -30551.63616167
  entropy T*S    EENTRO =         0.00000000
  eigenvalues    EBANDS =     -8166.40608737
  atomic energy  EATOM  =     38702.16803540
  Solvation  Ediel_sol  =         0.00000000
  ---------------------------------------------------
  free energy    TOTEN  =      -526.08541400 eV

  energy without entropy =     -526.08541400  energy(sigma->0) =     -526.08541400


--------------------------------------------------------------------------------------------------------




--------------------------------------- Iteration      1(   6)  ---------------------------------------


    POTLOK:  cpu time    0.1224: real time    0.1258
    SETDIJ:  cpu time    0.0115: real time    0.0115
    EDDIAG:  cpu time    2.9274: real time    2.9287
  RMM-DIIS:  cpu time   29.9142: real time   29.9371
    ORTHCH:  cpu time    0.6591: real time    0.6595
 BZINTS: Fermi energy: -2.710653;375.000000 electrons
         Band energy:***********;  BLOECHL correction: -0.035090
       DOS:  cpu time    0.0251: real time    0.0251
    CHARGE:  cpu time    0.5161: real time    0.5162
    MIXING:  cpu time    0.0045: real time    0.0046
    --------------------------------------------
      LOOP:  cpu time   34.1803: real time   34.2084

 eigenvalue-minimisations  : 13004
 total energy-change (2. order) : 0.1642371E+03  (-0.9601475E+02)
 number of electron     375.0000086 magnetization      38.7136037
 augmentation part       88.9673721 magnetization      35.3862763

 Broyden mixing:
  rms(total) = 0.42217E+01    rms(broyden)= 0.42213E+01
  rms(prec ) = 0.44054E+01
  weight for this iteration     100.00

 eigenvalues of (default mixing * dielectric matrix)
  average eigenvalue GAMMA=   0.7897
  0.7897

 Free energy of the ion-electron system (eV)
  ---------------------------------------------------
  alpha Z        PSCENC =       540.90897868
  Ewald energy   TEWEN  =    133770.97969278
  -Hartree energ DENC   =   -167183.51418972
  -exchange      EXHF   =         0.00000000
  -V(xc)+E(xc)   XCENC  =      1804.07021379
  PAW double counting   =     35324.92971114   -35041.70920808
  entropy T*S    EENTRO =         0.00000000
  eigenvalues    EBANDS =     -8279.68154882
  atomic energy  EATOM  =     38702.16803540
  Solvation  Ediel_sol  =         0.00000000
  ---------------------------------------------------
  free energy    TOTEN  =      -361.84831483 eV

  energy without entropy =     -361.84831483  energy(sigma->0) =     -361.84831483


--------------------------------------------------------------------------------------------------------




--------------------------------------- Iteration      1(   7)  ---------------------------------------


    POTLOK:  cpu time    0.1225: real time    0.1294
    SETDIJ:  cpu time    0.0115: real time    0.0115
    EDDIAG:  cpu time    2.9192: real time    2.9206
  RMM-DIIS:  cpu time   28.6533: real time   28.6748
    ORTHCH:  cpu time    0.6594: real time    0.6597
 BZINTS: Fermi energy: -2.050273;375.000000 electrons
         Band energy:***********;  BLOECHL correction: -0.006002
       DOS:  cpu time    0.0235: real time    0.0235
    CHARGE:  cpu time    0.5157: real time    0.5158
    MIXING:  cpu time    0.0046: real time    0.0046
    --------------------------------------------
      LOOP:  cpu time   32.9097: real time   32.9399

 eigenvalue-minimisations  : 12469
 total energy-change (2. order) : 0.1292331E+02  (-0.7794330E+01)
 number of electron     375.0000107 magnetization      32.9224571
 augmentation part       83.0602653 magnetization      30.8691475

 Broyden mixing:
  rms(total) = 0.26462E+01    rms(broyden)= 0.26461E+01
  rms(prec ) = 0.26997E+01
  weight for this iteration     100.00

 eigenvalues of (default mixing * dielectric matrix)
  average eigenvalue GAMMA=   0.9114
  1.2000  0.6228

 Free energy of the ion-electron system (eV)
  ---------------------------------------------------
  alpha Z        PSCENC =       540.90897868
  Ewald energy   TEWEN  =    133770.97969278
  -Hartree energ DENC   =   -167425.97563579
  -exchange      EXHF   =         0.00000000
  -V(xc)+E(xc)   XCENC  =      1799.78500890
  PAW double counting   =     37874.69658320   -37587.49994081
  entropy T*S    EENTRO =         0.00000000
  eigenvalues    EBANDS =     -8023.98772640
  atomic energy  EATOM  =     38702.16803540
  Solvation  Ediel_sol  =         0.00000000
  ---------------------------------------------------
  free energy    TOTEN  =      -348.92500405 eV

  energy without entropy =     -348.92500405  energy(sigma->0) =     -348.92500405


--------------------------------------------------------------------------------------------------------




--------------------------------------- Iteration      1(   8)  ---------------------------------------


    POTLOK:  cpu time    0.1231: real time    0.1251
    SETDIJ:  cpu time    0.0114: real time    0.0114
    EDDIAG:  cpu time    2.9224: real time    2.9261
  RMM-DIIS:  cpu time   32.5434: real time   32.5668
    ORTHCH:  cpu time    0.6582: real time    0.6583
 BZINTS: Fermi energy: -1.867618;375.000000 electrons
         Band energy:***********;  BLOECHL correction: -0.003577
       DOS:  cpu time    0.0235: real time    0.0235
    CHARGE:  cpu time    0.5183: real time    0.5186
    MIXING:  cpu time    0.0052: real time    0.0052
    --------------------------------------------
      LOOP:  cpu time   36.8054: real time   36.8349

 eigenvalue-minimisations  : 14146
 total energy-change (2. order) :-0.4384499E+01  (-0.2338472E+01)
 number of electron     375.0000100 magnetization      28.4530372
 augmentation part       82.8559186 magnetization      25.1786954

 Broyden mixing:
  rms(total) = 0.16329E+01    rms(broyden)= 0.16329E+01
  rms(prec ) = 0.16827E+01
  weight for this iteration     100.00

 eigenvalues of (default mixing * dielectric matrix)
  average eigenvalue GAMMA=   0.9617
  1.4641  0.7918  0.6293

 Free energy of the ion-electron system (eV)
  ---------------------------------------------------
  alpha Z        PSCENC =       540.90897868
  Ewald energy   TEWEN  =    133770.97969278
  -Hartree energ DENC   =   -167520.49052188
  -exchange      EXHF   =         0.00000000
  -V(xc)+E(xc)   XCENC  =      1795.77208280
  PAW double counting   =     41173.81515853   -40878.91730068
  entropy T*S    EENTRO =         0.00000000
  eigenvalues    EBANDS =     -7937.54562823
  atomic energy  EATOM  =     38702.16803540
  Solvation  Ediel_sol  =         0.00000000
  ---------------------------------------------------
  free energy    TOTEN  =      -353.30950261 eV

  energy without entropy =     -353.30950261  energy(sigma->0) =     -353.30950261


--------------------------------------------------------------------------------------------------------




--------------------------------------- Iteration      1(   9)  ---------------------------------------


    POTLOK:  cpu time    0.1233: real time    0.1312
    SETDIJ:  cpu time    0.0116: real time    0.0116
    EDDIAG:  cpu time    2.9204: real time    2.9224
  RMM-DIIS:  cpu time   33.2696: real time   33.2956
    ORTHCH:  cpu time    0.6594: real time    0.6597
 BZINTS: Fermi energy: -1.556393;375.000000 electrons
         Band energy:***********;  BLOECHL correction: -0.001270
       DOS:  cpu time    0.0228: real time    0.0228
    CHARGE:  cpu time    0.5175: real time    0.5177
    MIXING:  cpu time    0.0054: real time    0.0054
    --------------------------------------------
      LOOP:  cpu time   37.5299: real time   37.5665

 eigenvalue-minimisations  : 14490
 total energy-change (2. order) :-0.9022360E+01  (-0.8480292E+00)
 number of electron     375.0000101 magnetization      23.8161533
 augmentation part       81.8660072 magnetization      22.1695834

 Broyden mixing:
  rms(total) = 0.12918E+01    rms(broyden)= 0.12918E+01
  rms(prec ) = 0.13120E+01
  weight for this iteration     100.00

 eigenvalues of (default mixing * dielectric matrix)
  average eigenvalue GAMMA=   1.0261
  2.0504  0.9408  0.5939  0.5192

 Free energy of the ion-electron system (eV)
  ---------------------------------------------------
  alpha Z        PSCENC =       540.90897868
  Ewald energy   TEWEN  =    133770.97969278
  -Hartree energ DENC   =   -167652.44670247
  -exchange      EXHF   =         0.00000000
  -V(xc)+E(xc)   XCENC  =      1790.49974314
  PAW double counting   =     42854.25315643   -42542.23549383
  entropy T*S    EENTRO =         0.00000000
  eigenvalues    EBANDS =     -7826.45927269
  atomic energy  EATOM  =     38702.16803540
  Solvation  Ediel_sol  =         0.00000000
  ---------------------------------------------------
  free energy    TOTEN  =      -362.33186256 eV

  energy without entropy =     -362.33186256  energy(sigma->0) =     -362.33186256


--------------------------------------------------------------------------------------------------------




--------------------------------------- Iteration      1(  10)  ---------------------------------------


    POTLOK:  cpu time    0.1221: real time    0.1262
    SETDIJ:  cpu time    0.0116: real time    0.0116
    EDDIAG:  cpu time    2.9283: real time    2.9304
  RMM-DIIS:  cpu time   32.2487: real time   32.2718
    ORTHCH:  cpu time    0.6582: real time    0.6586
 BZINTS: Fermi energy: -1.404143;375.000000 electrons
         Band energy:***********;  BLOECHL correction: -0.002367
       DOS:  cpu time    0.0231: real time    0.0231
    CHARGE:  cpu time    0.5165: real time    0.5165
    MIXING:  cpu time    0.0058: real time    0.0058
    --------------------------------------------
      LOOP:  cpu time   36.5143: real time   36.5440

 eigenvalue-minimisations  : 14034
 total energy-change (2. order) :-0.4549514E+01  (-0.4257076E+00)
 number of electron     375.0000100 magnetization      18.3912581
 augmentation part       81.4942006 magnetization      16.6729066

 Broyden mixing:
  rms(total) = 0.94331E+00    rms(broyden)= 0.94331E+00
  rms(prec ) = 0.95062E+00
  weight for this iteration     100.00

 eigenvalues of (default mixing * dielectric matrix)
  average eigenvalue GAMMA=   1.1234
  2.4709  1.2783  0.6551  0.6551  0.5579

 Free energy of the ion-electron system (eV)
  ---------------------------------------------------
  alpha Z        PSCENC =       540.90897868
  Ewald energy   TEWEN  =    133770.97969278
  -Hartree energ DENC   =   -167721.81362446
  -exchange      EXHF   =         0.00000000
  -V(xc)+E(xc)   XCENC  =      1788.80142489
  PAW double counting   =     43979.03997026   -43647.89144804
  entropy T*S    EENTRO =         0.00000000
  eigenvalues    EBANDS =     -7779.07440588
  atomic energy  EATOM  =     38702.16803540
  Solvation  Ediel_sol  =         0.00000000
  ---------------------------------------------------
  free energy    TOTEN  =      -366.88137639 eV

  energy without entropy =     -366.88137639  energy(sigma->0) =     -366.88137639


--------------------------------------------------------------------------------------------------------




--------------------------------------- Iteration      1(  11)  ---------------------------------------


    POTLOK:  cpu time    0.1229: real time    0.1312
    SETDIJ:  cpu time    0.0114: real time    0.0114
    EDDIAG:  cpu time    2.9042: real time    2.9077
  RMM-DIIS:  cpu time   29.5253: real time   29.5472
    ORTHCH:  cpu time    0.6589: real time    0.6591
 BZINTS: Fermi energy: -1.214612;375.000000 electrons
         Band energy:***********;  BLOECHL correction:  0.000000
       DOS:  cpu time    0.0033: real time    0.0033
    CHARGE:  cpu time    0.5115: real time    0.5117
    MIXING:  cpu time    0.0061: real time    0.0061
    --------------------------------------------
      LOOP:  cpu time   33.7435: real time   33.7777

 eigenvalue-minimisations  : 12849
 total energy-change (2. order) :-0.1121532E+02  (-0.6438045E+00)
 number of electron     375.0000101 magnetization      11.3533538
 augmentation part       81.0540840 magnetization       9.8195578

 Broyden mixing:
  rms(total) = 0.71648E+00    rms(broyden)= 0.71648E+00
  rms(prec ) = 0.72349E+00
  weight for this iteration     100.00

 eigenvalues of (default mixing * dielectric matrix)
  average eigenvalue GAMMA=   1.2870
  2.9167  2.1023  0.7971  0.6810  0.6810  0.5438

 Free energy of the ion-electron system (eV)
  ---------------------------------------------------
  alpha Z        PSCENC =       540.90897868
  Ewald energy   TEWEN  =    133770.97969278
  -Hartree energ DENC   =   -167794.43165400
  -exchange      EXHF   =         0.00000000
  -V(xc)+E(xc)   XCENC  =      1783.44865401
  PAW double counting   =     44378.17079695   -44023.58926839
  entropy T*S    EENTRO =         0.00000000
  eigenvalues    EBANDS =     -7735.75192782
  atomic energy  EATOM  =     38702.16803540
  Solvation  Ediel_sol  =         0.00000000
  ---------------------------------------------------
  free energy    TOTEN  =      -378.09669239 eV

  energy without entropy =     -378.09669239  energy(sigma->0) =     -378.09669239


--------------------------------------------------------------------------------------------------------




--------------------------------------- Iteration      1(  12)  ---------------------------------------


    POTLOK:  cpu time    0.1229: real time    0.1254
    SETDIJ:  cpu time    0.0114: real time    0.0114
    EDDIAG:  cpu time    2.9091: real time    2.9114
  RMM-DIIS:  cpu time   26.3602: real time   26.3801
    ORTHCH:  cpu time    0.6608: real time    0.6611
 BZINTS: Fermi energy: -1.051495;375.000000 electrons
         Band energy:***********;  BLOECHL correction:  0.000000
       DOS:  cpu time    0.0034: real time    0.0034
    CHARGE:  cpu time    0.5105: real time    0.5109
    MIXING:  cpu time    0.0068: real time    0.0068
    --------------------------------------------
      LOOP:  cpu time   30.5851: real time   30.6104

 eigenvalue-minimisations  : 11450
 total energy-change (2. order) :-0.1748897E+02  (-0.1473755E+01)
 number of electron     375.0000101 magnetization       7.0297505
 augmentation part       80.5759221 magnetization       5.8245471

 Broyden mixing:
  rms(total) = 0.47537E+00    rms(broyden)= 0.47536E+00
  rms(prec ) = 0.49544E+00
  weight for this iteration     100.00

 eigenvalues of (default mixing * dielectric matrix)
  average eigenvalue GAMMA=   1.3561
  3.9122  2.1705  0.8296  0.7316  0.7316  0.6037  0.5138

 Free energy of the ion-electron system (eV)
  ---------------------------------------------------
  alpha Z        PSCENC =       540.90897868
  Ewald energy   TEWEN  =    133770.97969278
  -Hartree energ DENC   =   -167868.05205429
  -exchange      EXHF   =         0.00000000
  -V(xc)+E(xc)   XCENC  =      1774.29876990
  PAW double counting   =     44254.77881375   -43873.95657979
  entropy T*S    EENTRO =         0.00000000
  eigenvalues    EBANDS =     -7696.71131913
  atomic energy  EATOM  =     38702.16803540
  Solvation  Ediel_sol  =         0.00000000
  ---------------------------------------------------
  free energy    TOTEN  =      -395.58566271 eV

  energy without entropy =     -395.58566271  energy(sigma->0) =     -395.58566271


--------------------------------------------------------------------------------------------------------




--------------------------------------- Iteration      1(  13)  ---------------------------------------


    POTLOK:  cpu time    0.1228: real time    0.1290
    SETDIJ:  cpu time    0.0113: real time    0.0113
    EDDIAG:  cpu time    2.9071: real time    2.9092
  RMM-DIIS:  cpu time   26.4030: real time   26.4230
    ORTHCH:  cpu time    0.6595: real time    0.6600
 BZINTS: Fermi energy: -1.022833;375.000000 electrons
         Band energy:***********;  BLOECHL correction:  0.000000
       DOS:  cpu time    0.0050: real time    0.0050
    CHARGE:  cpu time    0.5093: real time    0.5094
    MIXING:  cpu time    0.0069: real time    0.0069
    --------------------------------------------
      LOOP:  cpu time   30.6249: real time   30.6538

 eigenvalue-minimisations  : 11458
 total energy-change (2. order) :-0.8446428E+01  (-0.8496586E+00)
 number of electron     375.0000100 magnetization       4.2843952
 augmentation part       80.4698262 magnetization       3.2902860

 Broyden mixing:
  rms(total) = 0.31294E+00    rms(broyden)= 0.31293E+00
  rms(prec ) = 0.32259E+00
  weight for this iteration     100.00

 eigenvalues of (default mixing * dielectric matrix)
  average eigenvalue GAMMA=   1.4534
  4.8297  2.2684  1.0639  1.0639  0.6417  0.6417  0.6104  0.5074

 Free energy of the ion-electron system (eV)
  ---------------------------------------------------
  alpha Z        PSCENC =       540.90897868
  Ewald energy   TEWEN  =    133770.97969278
  -Hartree energ DENC   =   -167875.92877012
  -exchange      EXHF   =         0.00000000
  -V(xc)+E(xc)   XCENC  =      1769.08282339
  PAW double counting   =     44301.67606370   -43911.80520285
  entropy T*S    EENTRO =         0.00000000
  eigenvalues    EBANDS =     -7701.11371209
  atomic energy  EATOM  =     38702.16803540
  Solvation  Ediel_sol  =         0.00000000
  ---------------------------------------------------
  free energy    TOTEN  =      -404.03209113 eV

  energy without entropy =     -404.03209113  energy(sigma->0) =     -404.03209113


--------------------------------------------------------------------------------------------------------




--------------------------------------- Iteration      1(  14)  ---------------------------------------


    POTLOK:  cpu time    0.1224: real time    0.1250
    SETDIJ:  cpu time    0.0115: real time    0.0115
    EDDIAG:  cpu time    2.9085: real time    2.9099
  RMM-DIIS:  cpu time   27.5622: real time   27.5831
    ORTHCH:  cpu time    0.6604: real time    0.6606
 BZINTS: Fermi energy: -1.084686;375.000000 electrons
         Band energy:***********;  BLOECHL correction:  0.000000
       DOS:  cpu time    0.0044: real time    0.0044
    CHARGE:  cpu time    0.5130: real time    0.5133
    MIXING:  cpu time    0.0072: real time    0.0072
    --------------------------------------------
      LOOP:  cpu time   31.7896: real time   31.8148

 eigenvalue-minimisations  : 11945
 total energy-change (2. order) :-0.4852145E+01  (-0.5743259E+00)
 number of electron     375.0000100 magnetization       1.9203454
 augmentation part       80.4508838 magnetization       1.0601906

 Broyden mixing:
  rms(total) = 0.18370E+00    rms(broyden)= 0.18368E+00
  rms(prec ) = 0.19473E+00
  weight for this iteration     100.00

 eigenvalues of (default mixing * dielectric matrix)
  average eigenvalue GAMMA=   1.6722
  6.6217  2.5338  1.7576  0.9947  0.7211  0.7211  0.4933  0.6034  0.6034

 Free energy of the ion-electron system (eV)
  ---------------------------------------------------
  alpha Z        PSCENC =       540.90897868
  Ewald energy   TEWEN  =    133770.97969278
  -Hartree energ DENC   =   -167838.10185562
  -exchange      EXHF   =         0.00000000
  -V(xc)+E(xc)   XCENC  =      1764.77925450
  PAW double counting   =     44105.72496957   -43717.70763019
  entropy T*S    EENTRO =         0.00000000
  eigenvalues    EBANDS =     -7737.63568129
  atomic energy  EATOM  =     38702.16803540
  Solvation  Ediel_sol  =         0.00000000
[...]
 VDW_A2       =    4.4407
 k1-k3        =   16.0000    1.3333   -4.0000
 VDW_RADIUS   =   50.2022 A
 VDW_CNRADIUS =   21.1671 A
 Edisp (eV)  -11.02887

 E6    (eV) :    -6.2432
 E8    (eV) :    -4.7856
 % E8        : 43.39
    FORVDW:  cpu time    0.1477: real time    0.1641

  FORCE on cell =-STRESS in cart. coord.  units (eV):
  Direction    XX          YY          ZZ          XY          YZ          ZX
  --------------------------------------------------------------------------------------
  Alpha Z   540.90898   540.90898   540.90898
  Ewald  154083.19676154187.09334************    -0.00365    46.05743     0.00108
  Hartree161943.27837161976.44065************    -0.00032    21.94644    -0.00088
  E(xc)   -1875.12944 -1874.76180 -1880.51742    -0.00008     0.04921    -0.00000
  Local  ************************325487.72131     0.00202   -71.00147     0.00114
  n-local  -989.08225  -990.90706  -961.73130     1.07153     0.20463     0.75214
  augment  1278.73734  1277.81161  1263.73441     0.00043    -2.04713    -0.00016
  Kinetic  6278.24075  6264.82102  6300.32258    -4.29526     4.74019    -0.65093
  Fock        0.00000     0.00000     0.00000     0.00000     0.00000     0.00000
  vdW       -11.61150   -11.61182    -5.24652     0.00000    -0.00059     0.00000
  -------------------------------------------------------------------------------------
  Total       0.01496     0.06772    -1.23073     0.00000    -0.05129     0.00000
  in kB       0.01554     0.07036    -1.27873     0.00000    -0.05329     0.00000
  external pressure =       -0.40 kB  Pullay stress =        0.00 kB


 VOLUME and BASIS-vectors are now :
 -----------------------------------------------------------------------------
  energy-cutoff  :      600.00
  volume of cell :     1542.03
      direct lattice vectors                 reciprocal lattice vectors
     9.031787859  0.000000000  0.000000000     0.110720050  0.063883350  0.000000000
    -4.515893929  7.826765558  0.000000000     0.000000000  0.127766699 -0.000000000
    -0.000000000  0.000000000 21.814132787     0.000000000  0.000000000  0.045841841

  length of vectors
     9.031787859  9.036125114 21.814132787     0.127828055  0.127766699  0.045841841


 FORCES acting on ions
    electron-ion (+dipol)            ewald-force                    non-local-force                 convergence-correction
 -----------------------------------------------------------------------------------------------
   -.276E-03 0.318E+01 -.348E+02   0.145E-03 -.315E+01 0.348E+02   0.183E-17 -.271E-01 -.434E-01   -.144E-07 0.840E-04 0.401E-04
   0.384E+01 -.227E+01 -.337E+02   -.386E+01 0.231E+01 0.337E+02   0.233E-01 -.451E-01 -.342E-01   0.642E-04 -.919E-04 -.506E-04
   0.105E+02 0.621E+01 -.404E+02   -.107E+02 -.639E+01 0.409E+02   0.152E+00 0.170E+00 -.469E+00   0.147E-05 0.642E-04 -.446E-04
   -.902E+01 0.699E+01 -.196E+02   0.920E+01 -.708E+01 0.194E+02   -.174E+00 0.966E-01 0.216E+00   -.241E-03 -.324E-04 0.144E-03
   -.384E+01 -.227E+01 -.337E+02   0.386E+01 0.231E+01 0.337E+02   -.233E-01 -.451E-01 -.342E-01   -.642E-04 -.919E-04 -.506E-04
   -.927E-04 -.150E+02 -.133E+02   -.239E-03 0.151E+02 0.132E+02   -.332E-18 -.159E+00 0.145E+00   0.193E-07 -.407E-04 -.110E-03
   0.902E+01 0.699E+01 -.196E+02   -.920E+01 -.708E+01 0.194E+02   0.174E+00 0.966E-01 0.216E+00   0.241E-03 -.324E-04 0.144E-03
   -.102E-03 -.739E+01 -.426E+02   0.125E-03 0.750E+01 0.429E+02   0.564E-18 -.104E+00 -.246E+00   -.590E-08 0.984E-04 0.928E-04
   -.105E+02 0.621E+01 -.404E+02   0.107E+02 -.639E+01 0.409E+02   -.152E+00 0.170E+00 -.469E+00   -.149E-05 0.642E-04 -.446E-04
   0.216E+01 0.139E+01 -.178E+04   -.211E+01 -.137E+01 0.178E+04   -.432E-01 -.769E-02 -.840E+00   0.709E-04 -.491E-04 0.642E-03
   -.454E-03 -.217E+01 -.173E+04   -.448E-03 0.211E+01 0.173E+04   0.885E-17 0.911E-01 -.832E+00   -.277E-07 0.434E-04 0.581E-03
   0.184E+01 0.226E+01 -.178E+04   -.186E+01 -.218E+01 0.178E+04   0.155E-01 -.687E-01 -.767E+00   0.174E-04 0.135E-03 0.417E-03
   -.221E-02 0.325E+01 -.173E+04   0.560E-03 -.316E+01 0.173E+04   0.765E-18 -.885E-01 -.334E+00   -.116E-08 -.173E-03 0.237E-03
   0.380E+00 -.318E+00 -.176E+04   -.357E+00 0.384E+00 0.176E+04   -.175E-01 -.353E-01 -.809E+00   -.158E-03 -.516E-04 0.425E-03
   -.184E+01 0.226E+01 -.178E+04   0.186E+01 -.218E+01 0.178E+04   -.155E-01 -.687E-01 -.767E+00   -.174E-04 0.135E-03 0.417E-03
   -.216E+01 0.139E+01 -.178E+04   0.211E+01 -.137E+01 0.178E+04   0.432E-01 -.769E-02 -.840E+00   -.710E-04 -.491E-04 0.642E-03
   -.379E+00 -.322E+00 -.176E+04   0.358E+00 0.383E+00 0.176E+04   0.175E-01 -.353E-01 -.809E+00   0.158E-03 -.516E-04 0.424E-03
   -.921E-03 0.164E+01 -.171E+04   -.926E-03 -.162E+01 0.172E+04   0.251E-17 -.207E-01 -.338E+00   0.170E-07 0.126E-03 0.559E-03
   0.149E+02 0.818E+01 0.155E+04   -.149E+02 -.815E+01 -.155E+04   0.190E-01 -.478E-01 0.632E+00   0.440E-03 0.482E-05 -.377E-04
   0.498E+01 0.405E+01 0.158E+04   -.493E+01 -.412E+01 -.158E+04   -.596E-01 0.768E-01 0.817E+00   0.169E-03 0.198E-03 -.166E-03
   0.236E-02 0.222E+01 0.157E+04   0.852E-04 -.213E+01 -.157E+04   0.174E-17 -.102E+00 0.754E+00   -.856E-07 0.897E-04 -.609E-04
   -.149E+02 0.819E+01 0.155E+04   0.149E+02 -.815E+01 -.155E+04   -.190E-01 -.478E-01 0.632E+00   -.440E-03 0.492E-05 -.377E-04
   -.322E-02 -.539E+01 0.154E+04   -.770E-03 0.537E+01 -.154E+04   -.233E-17 0.123E-01 0.639E+00   0.439E-07 -.323E-03 -.147E-03
   -.145E+03 -.915E+02 0.148E+04   0.143E+03 0.909E+02 -.148E+04   0.125E+01 0.659E+00 -.887E+00   -.489E-03 -.238E-03 0.220E-03
   -.212E-02 0.156E+03 0.146E+04   -.678E-03 -.156E+03 -.146E+04   0.694E-17 -.201E+00 0.103E-02   0.327E-07 0.526E-03 0.726E-03
   -.498E+01 0.405E+01 0.158E+04   0.493E+01 -.412E+01 -.158E+04   0.596E-01 0.768E-01 0.817E+00   -.169E-03 0.198E-03 -.166E-03
   0.145E+03 -.915E+02 0.148E+04   -.143E+03 0.909E+02 -.148E+04   -.125E+01 0.659E+00 -.887E+00   0.489E-03 -.238E-03 0.220E-03
   -.702E+01 -.307E+01 -.159E+04   0.778E+01 0.343E+01 0.161E+04   -.759E+00 -.358E+00 -.195E+02   -.119E-04 -.488E-04 0.500E-03
   0.154E+01 -.422E+01 -.159E+04   -.172E+01 0.459E+01 0.161E+04   0.181E+00 -.394E+00 -.193E+02   -.545E-04 -.122E-03 0.646E-03
   0.910E-03 0.408E+01 -.159E+04   0.282E-03 -.456E+01 0.161E+04   0.721E-16 0.473E+00 -.194E+02   0.188E-09 0.992E-04 0.538E-03
   0.702E+01 -.307E+01 -.159E+04   -.778E+01 0.343E+01 0.161E+04   0.759E+00 -.358E+00 -.195E+02   0.119E-04 -.488E-04 0.500E-03
   0.736E-03 0.365E+01 -.159E+04   0.492E-03 -.414E+01 0.161E+04   0.100E-15 0.479E+00 -.196E+02   0.970E-08 -.183E-03 0.683E-03
   -.496E+01 -.289E+01 -.159E+04   0.527E+01 0.300E+01 0.161E+04   -.307E+00 -.118E+00 -.193E+02   -.142E-03 0.144E-03 0.638E-03
   -.119E-02 0.717E+01 -.159E+04   -.546E-03 -.763E+01 0.161E+04   0.718E-16 0.453E+00 -.192E+02   -.765E-08 0.938E-04 0.609E-03
   -.154E+01 -.422E+01 -.159E+04   0.172E+01 0.459E+01 0.161E+04   -.181E+00 -.394E+00 -.193E+02   0.545E-04 -.122E-03 0.646E-03
   0.496E+01 -.289E+01 -.159E+04   -.527E+01 0.300E+01 0.161E+04   0.307E+00 -.118E+00 -.193E+02   0.142E-03 0.144E-03 0.638E-03
   0.841E+01 0.202E+02 0.149E+04   -.869E+01 -.211E+02 -.151E+04   0.285E+00 0.953E+00 0.195E+02   0.527E-03 0.362E-03 -.466E-04
   -.211E-02 0.647E-01 0.150E+04   -.407E-03 0.271E+00 -.152E+04   -.717E-16 -.340E+00 0.192E+02   -.513E-07 -.277E-04 -.150E-03
   0.718E+01 -.154E+02 0.148E+04   -.774E+01 0.160E+02 -.150E+04   0.558E+00 -.580E+00 0.197E+02   0.845E-04 0.922E-04 -.380E-04
   -.169E-02 0.759E+01 0.149E+04   -.503E-03 -.774E+01 -.151E+04   -.788E-16 0.154E+00 0.193E+02   -.983E-08 -.324E-04 -.485E-04
   -.961E+00 0.210E+01 0.146E+04   0.146E+01 -.156E+01 -.148E+04   -.507E+00 -.549E+00 0.195E+02   -.637E-04 -.148E-03 0.587E-04
   -.718E+01 -.154E+02 0.148E+04   0.774E+01 0.160E+02 -.150E+04   -.558E+00 -.580E+00 0.197E+02   -.845E-04 0.922E-04 -.379E-04
   -.841E+01 0.202E+02 0.149E+04   0.869E+01 -.211E+02 -.151E+04   -.285E+00 0.953E+00 0.195E+02   -.527E-03 0.362E-03 -.466E-04
   0.958E+00 0.210E+01 0.146E+04   -.146E+01 -.156E+01 -.148E+04   0.507E+00 -.549E+00 0.195E+02   0.637E-04 -.148E-03 0.587E-04
   -.296E-03 -.389E+02 0.674E+03   0.945E-03 0.374E+02 -.674E+03   -.558E-16 0.155E+01 0.134E+00   0.211E-07 -.146E-03 0.528E-04
   0.950E-02 -.301E+02 0.259E+04   -.139E-03 0.338E+02 -.259E+04   -.206E-15 -.365E+01 -.719E+01   0.936E-07 -.389E-03 0.125E-02
   0.201E-01 0.852E+02 0.127E+04   0.245E-04 -.120E+03 -.127E+04   -.177E-14 0.351E+02 -.493E+01   0.936E-07 0.957E-04 0.120E-02
   0.171E-02 -.658E+02 0.233E+03   0.278E-05 0.720E+02 -.239E+03   -.234E-15 -.619E+01 0.538E+01   0.995E-08 -.929E-04 0.233E-03
 -----------------------------------------------------------------------------------------------
   0.730E-02 -.269E+02 0.297E+02   0.132E-13 0.568E-13 -.171E-11   -.182E-14 0.269E+02 -.297E+02   0.118E-06 0.282E-03 0.129E-01
 
 
 POSITION                                       TOTAL-FORCE (eV/Angst)
 -----------------------------------------------------------------------------------
     -1.50530      7.80290     10.93872        -0.000000      0.000439      0.000238
      1.50478      2.58273     10.93718        -0.000965     -0.004001     -0.003163
      0.00560      5.19939     10.92975        -0.004970     -0.011943      0.009839
      1.51207      7.79653     10.94025         0.002449      0.003005     -0.000249
      4.51641      2.58273     10.93718         0.000965     -0.004001     -0.003163
      3.01060      5.20668     10.92114         0.000000     -0.006157      0.013941
      4.50912      7.79653     10.94025        -0.002449      0.003005     -0.000249
      7.52649      2.59680     10.93931        -0.000000      0.000391     -0.005777
      6.01559      5.19939     10.92975         0.004970     -0.011943      0.009839
      0.00735      1.71746     12.26305         0.003813      0.009435      0.014343
     -1.50530      4.32807     12.22031        -0.000000      0.022237     -0.005582
     -3.01084      6.94473     12.25807         0.001189      0.007609      0.002187
      3.01060      1.72422     12.21458         0.000000      0.007093      0.006247
      1.51204      4.32834     12.24545         0.004448      0.028165     -0.010731
      0.00024      6.94473     12.25807        -0.001189      0.007609      0.002187
      6.01384      1.71746     12.26305        -0.003813      0.009435      0.014343
      4.50915      4.32834     12.24545        -0.004448      0.028165     -0.010731
      3.01060      6.93519     12.22588        -0.000000     -0.007583      0.001144
      1.50246      0.84518      9.64133         0.001340     -0.015961     -0.016044
     -0.00103      3.43469      9.60682        -0.003127      0.004182     -0.008517
     -1.50530      6.07688      9.61215         0.000000     -0.004282     -0.002044
      4.51873      0.84518      9.64133        -0.001340     -0.015961     -0.016044
      3.01060      3.45814      9.62812        -0.000000      0.006098     -0.010696
      1.42541      6.02022      9.70453         0.000514      0.003354     -0.006588
      7.52649      0.90620      9.74311        -0.000000     -0.000980      0.004422
      6.02222      3.43469      9.60682         0.003127      0.004182     -0.008517
      4.59578      6.02022      9.70453        -0.000514      0.003354     -0.006588
      1.50430      0.84720     13.16541        -0.001288     -0.001247     -0.009887
     -0.00461      3.46108     13.15729        -0.000374     -0.020191      0.001198
     -1.50530      6.05981     13.15798        -0.000000     -0.010475     -0.007773
      4.51689      0.84720     13.16540         0.001288     -0.001247     -0.009887
      3.01059      3.45675     13.15840         0.000000     -0.017546      0.005754
      1.50298      6.05905     13.16744        -0.001038     -0.005084     -0.002478
      7.52649      0.85257     13.16891        -0.000000     -0.006703     -0.005785
      6.02580      3.46108     13.15729         0.000374     -0.020191      0.001198
      4.51821      6.05905     13.16744         0.001038     -0.005084     -0.002478
     -0.00572      1.70391      8.71093         0.000477      0.009399      0.009717
     -1.50530      4.32227      8.70180        -0.000000     -0.003522      0.008558
     -3.01238      6.93177      8.71000        -0.000708      0.011329      0.005191
      3.01060      1.71618      8.71952        -0.000000      0.003700      0.004156
      1.49843      4.31995      8.71605        -0.002088     -0.003172      0.005807
      0.00179      6.93177      8.71000         0.000708      0.011329      0.005191
      6.02692      1.70392      8.71093        -0.000477      0.009399      0.009717
      4.52276      4.31995      8.71605         0.002088     -0.003172      0.005807
      3.01060      7.01859      8.05803         0.000000     -0.003586      0.005186
      3.01058      6.43749      6.27573        -0.000000     -0.007981      0.006087
      3.01058      5.99581      4.34862         0.000000      0.001778     -0.008514
      3.01058      6.74286      3.72405        -0.000000     -0.002678      0.009187
 -----------------------------------------------------------------------------------
    total drift:                                0.007303     -0.001765      0.007532


--------------------------------------------------------------------------------------------------------



  FREE ENERGIE OF THE ION-ELECTRON SYSTEM (eV)
  ---------------------------------------------------
  free  energy   TOTEN  =      -423.89823535 eV

  energy  without entropy=     -423.89823535  energy(sigma->0) =     -423.89823535
 


--------------------------------------------------------------------------------------------------------


    POTLOK:  cpu time    0.1336: real time    0.1336


--------------------------------------------------------------------------------------------------------


 stress matrix after NEB project (eV)
      0.01496      0.00000      0.00000
      0.00000      0.06772     -0.05129
      0.00000     -0.05129     -1.23073
  FORCES: max atom, RMS     0.030467    0.013355
  FORCE total and by dimension    0.092528    0.028165
  Stress total and by dimension    1.234811    1.230727
     LOOP+:  cpu time 1253.1962: real time 1254.5021
    4ORBIT:  cpu time    0.0000: real time    0.0000
 


 total charge     
 
# of ion       s       p       d       tot
------------------------------------------
    1        0.887   1.541   0.000   2.429
    2        0.887   1.540   0.000   2.427
    3        0.890   1.544   0.000   2.434
    4        0.889   1.542   0.000   2.430
    5        0.887   1.542   0.000   2.429
    6        0.889   1.536   0.000   2.424
    7        0.889   1.541   0.000   2.430
    8        0.891   1.545   0.000   2.437
    9        0.891   1.542   0.000   2.434
   10        2.207   6.270   1.854  10.331
   11        2.207   6.272   1.857  10.336
   12        2.207   6.270   1.856  10.333
   13        2.206   6.271   1.853  10.331
   14        2.206   6.270   1.855  10.331
   15        2.207   6.270   1.855  10.332
   16        2.207   6.270   1.857  10.334
   17        2.206   6.270   1.857  10.333
   18        2.207   6.269   1.852  10.328
   19        2.206   6.270   1.850  10.326
   20        2.207   6.270   1.848  10.325
   21        2.207   6.269   1.861  10.337
   22        2.206   6.270   1.852  10.328
   23        2.206   6.270   1.851  10.327
   24        2.210   6.252   1.913  10.375
   25        2.212   6.267   1.911  10.390
   26        2.206   6.271   1.870  10.347
   27        2.209   6.252   1.925  10.386
   28        1.575   3.457   0.000   5.033
   29        1.575   3.453   0.000   5.028
   30        1.575   3.454   0.000   5.029
   31        1.575   3.452   0.000   5.027
   32        1.575   3.454   0.000   5.030
   33        1.575   3.451   0.000   5.026
   34        1.575   3.453   0.000   5.028
   35        1.575   3.454   0.000   5.029
   36        1.575   3.454   0.000   5.029
   37        1.576   3.438   0.000   5.014
   38        1.575   3.454   0.000   5.029
   39        1.577   3.449   0.000   5.026
   40        1.575   3.454   0.000   5.028
   41        1.577   3.447   0.000   5.023
   42        1.576   3.449   0.000   5.026
   43        1.575   3.453   0.000   5.029
   44        1.576   3.456   0.000   5.033
   45        0.813   0.916   0.000   1.728
   46        0.810   0.379   8.565   9.754
   47        1.562   3.475   0.000   5.037
   48        0.617   0.121   0.000   0.739
--------------------------------------------------
tot         78.315 190.271  42.143 310.729
 


 magnetization (x)
 
# of ion       s       p       d       tot
------------------------------------------
    1       -0.000  -0.000   0.000  -0.000
    2       -0.000  -0.000   0.000  -0.000
    3       -0.000  -0.000   0.000  -0.000
    4       -0.000  -0.000   0.000  -0.000
    5       -0.000  -0.000   0.000  -0.000
    6       -0.000  -0.000   0.000  -0.000
    7       -0.000  -0.000   0.000  -0.000
    8       -0.000  -0.000   0.000  -0.000
    9       -0.000  -0.000   0.000  -0.000
   10        0.000   0.000   0.001   0.001
   11        0.000   0.000   0.002   0.002
   12        0.000   0.000   0.001   0.001
   13        0.000  -0.000   0.000   0.000
   14        0.000   0.000   0.002   0.002
   15        0.000   0.000   0.000   0.000
   16        0.000   0.000   0.001   0.001
   17        0.000   0.000   0.002   0.002
   18        0.000   0.000   0.001   0.001
   19        0.000   0.000   0.001   0.001
   20        0.000   0.000   0.001   0.001
   21        0.000   0.000   0.002   0.002
   22        0.000   0.000   0.001   0.001
   23       -0.000  -0.000   0.000   0.000
   24        0.000   0.000   0.004   0.004
   25        0.000   0.000   0.005   0.006
   26        0.000   0.000   0.002   0.002
   27        0.000   0.000   0.004   0.004
   28        0.000   0.001   0.000   0.001
   29        0.000   0.001   0.000   0.001
   30        0.000   0.001   0.000   0.001
   31        0.000   0.000   0.000   0.000
   32        0.000   0.001   0.000   0.001
   33        0.000   0.000   0.000   0.000
   34        0.000   0.000   0.000   0.000
   35        0.000   0.001   0.000   0.001
   36        0.000   0.000   0.000   0.000
   37        0.000   0.000   0.000   0.000
   38        0.000   0.000   0.000   0.000
   39        0.000   0.000   0.000   0.000
   40        0.000   0.000   0.000   0.000
   41        0.000   0.000   0.000   0.000
   42        0.000   0.000   0.000   0.000
   43        0.000   0.000   0.000   0.000
   44        0.000   0.000   0.000   0.000
   45        0.000   0.002   0.000   0.003
   46        0.000   0.000   0.000   0.001
   47        0.000  -0.000   0.000  -0.000
   48        0.000  -0.000   0.000   0.000
--------------------------------------------------
tot          0.001   0.006   0.030   0.037
 
 BZINTS: Fermi energy: -1.509330;375.000000 electrons
         Band energy:***********;  BLOECHL correction: -0.008233

 total amount of memory used by VASP MPI-rank0   210997. kBytes
=======================================================================

   base      :      30000. kBytes
   nonl-proj :      56363. kBytes
   fftplans  :       4476. kBytes
   grid      :      14592. kBytes
   one-center:        186. kBytes
   wavefun   :     105380. kBytes
 
  
  
 General timing and accounting informations for this job:
 ========================================================
  
                  Total CPU time used (sec):     1285.707
                            User time (sec):     1277.143
                          System time (sec):        8.564
                         Elapsed time (sec):     1287.761
  
                   Maximum memory used (kb):      294352.
                   Average memory used (kb):           0.
  
                          Minor page faults:       125932
                          Major page faults:           16
                 Voluntary context switches:         1889
