unknown system                          
           1
     9.031788    0.000000    0.000000
    -4.515894    7.826766    0.000000
    -0.000000    0.000000   21.814133
   C    Ti   O    B    Au   O    H 
   9  18  17   1   1   1   1
Direct configuration=     1
   0.33180900  0.99695131  0.50145087
   0.33160234  0.32998682  0.50138060
   0.33277419  0.66430871  0.50103999
   0.66548458  0.99613652  0.50152116
   0.66505110  0.32998691  0.50138060
   0.66595369  0.66524074  0.50064520
   0.99731864  0.99613653  0.50152115
   0.99922547  0.33178440  0.50147823
   0.99820112  0.66430882  0.50103996
   0.11053116  0.21943383  0.56216080
   0.10982483  0.55298310  0.56020153
   0.11029190  0.88730474  0.56193254
   0.44348253  0.22029830  0.55993873
   0.44392161  0.55301751  0.56135378
   0.44367930  0.88730463  0.56193252
   0.77556951  0.21943391  0.56216074
   0.77576246  0.55301783  0.56135377
   0.77637653  0.88608642  0.56045698
   0.22034565  0.10798569  0.44197626
   0.21930574  0.43883957  0.44039432
   0.22154461  0.77642305  0.44063887
   0.55430654  0.10798540  0.44197613
   0.55425076  0.44183459  0.44137070
   0.54241309  0.76918355  0.44487343
   0.89122468  0.11578257  0.44664228
   0.88620047  0.43883943  0.44039431
   0.89343685  0.76918370  0.44487339
   0.22067834  0.10824387  0.60352640
   0.22059552  0.44221114  0.60315418
   0.22045400  0.77424170  0.60318590
   0.55423208  0.10824386  0.60352638
   0.55416170  0.44165709  0.60320540
   0.55348175  0.77414431  0.60361962
   0.88779822  0.10892970  0.60368701
   0.88828205  0.44221134  0.60315418
   0.88732910  0.77414454  0.60361968
   0.10821803  0.21770354  0.39932506
   0.10945437  0.55224182  0.39890641
   0.10929364  0.88564944  0.39928260
   0.44296881  0.21927079  0.39971882
   0.44187936  0.55194615  0.39955986
   0.44302234  0.88564924  0.39928255
   0.77615247  0.21770388  0.39932498
   0.77673331  0.55194573  0.39955988
   0.78170452  0.89674255  0.36939491
   0.74458004  0.82249662  0.28769111
   0.71636387  0.76606428  0.19934878
   0.76408840  0.86151333  0.17071717
